[Molden Format]
[Atoms] (AU)
C    1    6          -1.4698289804        -1.4698289804        -1.4698289804
C    2    6          -1.4698289804        -1.4698289804         1.4698289804
C    3    6          -1.4698289804         1.4698289804        -1.4698289804
C    4    6          -1.4698289804         1.4698289804         1.4698289804
C    5    6           1.4698289804        -1.4698289804        -1.4698289804
C    6    6           1.4698289804        -1.4698289804         1.4698289804
C    7    6           1.4698289804         1.4698289804        -1.4698289804
C    8    6           1.4698289804         1.4698289804         1.4698289804
F    9    9          -2.9880349496        -2.9880349496        -2.9880349496
F   10    9          -2.9880349496        -2.9880349496         2.9880349496
F   11    9          -2.9880349496         2.9880349496        -2.9880349496
F   12    9          -2.9880349496         2.9880349496         2.9880349496
F   13    9           2.9880349496        -2.9880349496        -2.9880349496
F   14    9           2.9880349496        -2.9880349496         2.9880349496
F   15    9           2.9880349496         2.9880349496        -2.9880349496
F   16    9           2.9880349496         2.9880349496         2.9880349496
[GTO]
  1 0
 s    8  1.00
     6665.0000000000         0.0006920000
     1000.0000000000         0.0053290000
      228.0000000000         0.0270770000
       64.7100000000         0.1017180000
       21.0600000000         0.2747400000
        7.4950000000         0.4485640000
        2.7970000000         0.2850740000
        0.5215000000         0.0152040000
 s    8  1.00
     6665.0000000000        -0.0001460000
     1000.0000000000        -0.0011540000
      228.0000000000        -0.0057250000
       64.7100000000        -0.0233120000
       21.0600000000        -0.0639550000
        7.4950000000        -0.1499810000
        2.7970000000        -0.1272620000
        0.5215000000         0.5445290000
 s    1  1.00
        0.1596000000         1.0000000000
 p    3  1.00
        9.4390000000         0.0381090000
        2.0020000000         0.2094800000
        0.5456000000         0.5085570000
 p    1  1.00
        0.1517000000         1.0000000000
 d    1  1.00
        0.5500000000         1.0000000000

  2 0
 s    8  1.00
     6665.0000000000         0.0006920000
     1000.0000000000         0.0053290000
      228.0000000000         0.0270770000
       64.7100000000         0.1017180000
       21.0600000000         0.2747400000
        7.4950000000         0.4485640000
        2.7970000000         0.2850740000
        0.5215000000         0.0152040000
 s    8  1.00
     6665.0000000000        -0.0001460000
     1000.0000000000        -0.0011540000
      228.0000000000        -0.0057250000
       64.7100000000        -0.0233120000
       21.0600000000        -0.0639550000
        7.4950000000        -0.1499810000
        2.7970000000        -0.1272620000
        0.5215000000         0.5445290000
 s    1  1.00
        0.1596000000         1.0000000000
 p    3  1.00
        9.4390000000         0.0381090000
        2.0020000000         0.2094800000
        0.5456000000         0.5085570000
 p    1  1.00
        0.1517000000         1.0000000000
 d    1  1.00
        0.5500000000         1.0000000000

  3 0
 s    8  1.00
     6665.0000000000         0.0006920000
     1000.0000000000         0.0053290000
      228.0000000000         0.0270770000
       64.7100000000         0.1017180000
       21.0600000000         0.2747400000
        7.4950000000         0.4485640000
        2.7970000000         0.2850740000
        0.5215000000         0.0152040000
 s    8  1.00
     6665.0000000000        -0.0001460000
     1000.0000000000        -0.0011540000
      228.0000000000        -0.0057250000
       64.7100000000        -0.0233120000
       21.0600000000        -0.0639550000
        7.4950000000        -0.1499810000
        2.7970000000        -0.1272620000
        0.5215000000         0.5445290000
 s    1  1.00
        0.1596000000         1.0000000000
 p    3  1.00
        9.4390000000         0.0381090000
        2.0020000000         0.2094800000
        0.5456000000         0.5085570000
 p    1  1.00
        0.1517000000         1.0000000000
 d    1  1.00
        0.5500000000         1.0000000000

  4 0
 s    8  1.00
     6665.0000000000         0.0006920000
     1000.0000000000         0.0053290000
      228.0000000000         0.0270770000
       64.7100000000         0.1017180000
       21.0600000000         0.2747400000
        7.4950000000         0.4485640000
        2.7970000000         0.2850740000
        0.5215000000         0.0152040000
 s    8  1.00
     6665.0000000000        -0.0001460000
     1000.0000000000        -0.0011540000
      228.0000000000        -0.0057250000
       64.7100000000        -0.0233120000
       21.0600000000        -0.0639550000
        7.4950000000        -0.1499810000
        2.7970000000        -0.1272620000
        0.5215000000         0.5445290000
 s    1  1.00
        0.1596000000         1.0000000000
 p    3  1.00
        9.4390000000         0.0381090000
        2.0020000000         0.2094800000
        0.5456000000         0.5085570000
 p    1  1.00
        0.1517000000         1.0000000000
 d    1  1.00
        0.5500000000         1.0000000000

  5 0
 s    8  1.00
     6665.0000000000         0.0006920000
     1000.0000000000         0.0053290000
      228.0000000000         0.0270770000
       64.7100000000         0.1017180000
       21.0600000000         0.2747400000
        7.4950000000         0.4485640000
        2.7970000000         0.2850740000
        0.5215000000         0.0152040000
 s    8  1.00
     6665.0000000000        -0.0001460000
     1000.0000000000        -0.0011540000
      228.0000000000        -0.0057250000
       64.7100000000        -0.0233120000
       21.0600000000        -0.0639550000
        7.4950000000        -0.1499810000
        2.7970000000        -0.1272620000
        0.5215000000         0.5445290000
 s    1  1.00
        0.1596000000         1.0000000000
 p    3  1.00
        9.4390000000         0.0381090000
        2.0020000000         0.2094800000
        0.5456000000         0.5085570000
 p    1  1.00
        0.1517000000         1.0000000000
 d    1  1.00
        0.5500000000         1.0000000000

  6 0
 s    8  1.00
     6665.0000000000         0.0006920000
     1000.0000000000         0.0053290000
      228.0000000000         0.0270770000
       64.7100000000         0.1017180000
       21.0600000000         0.2747400000
        7.4950000000         0.4485640000
        2.7970000000         0.2850740000
        0.5215000000         0.0152040000
 s    8  1.00
     6665.0000000000        -0.0001460000
     1000.0000000000        -0.0011540000
      228.0000000000        -0.0057250000
       64.7100000000        -0.0233120000
       21.0600000000        -0.0639550000
        7.4950000000        -0.1499810000
        2.7970000000        -0.1272620000
        0.5215000000         0.5445290000
 s    1  1.00
        0.1596000000         1.0000000000
 p    3  1.00
        9.4390000000         0.0381090000
        2.0020000000         0.2094800000
        0.5456000000         0.5085570000
 p    1  1.00
        0.1517000000         1.0000000000
 d    1  1.00
        0.5500000000         1.0000000000

  7 0
 s    8  1.00
     6665.0000000000         0.0006920000
     1000.0000000000         0.0053290000
      228.0000000000         0.0270770000
       64.7100000000         0.1017180000
       21.0600000000         0.2747400000
        7.4950000000         0.4485640000
        2.7970000000         0.2850740000
        0.5215000000         0.0152040000
 s    8  1.00
     6665.0000000000        -0.0001460000
     1000.0000000000        -0.0011540000
      228.0000000000        -0.0057250000
       64.7100000000        -0.0233120000
       21.0600000000        -0.0639550000
        7.4950000000        -0.1499810000
        2.7970000000        -0.1272620000
        0.5215000000         0.5445290000
 s    1  1.00
        0.1596000000         1.0000000000
 p    3  1.00
        9.4390000000         0.0381090000
        2.0020000000         0.2094800000
        0.5456000000         0.5085570000
 p    1  1.00
        0.1517000000         1.0000000000
 d    1  1.00
        0.5500000000         1.0000000000

  8 0
 s    8  1.00
     6665.0000000000         0.0006920000
     1000.0000000000         0.0053290000
      228.0000000000         0.0270770000
       64.7100000000         0.1017180000
       21.0600000000         0.2747400000
        7.4950000000         0.4485640000
        2.7970000000         0.2850740000
        0.5215000000         0.0152040000
 s    8  1.00
     6665.0000000000        -0.0001460000
     1000.0000000000        -0.0011540000
      228.0000000000        -0.0057250000
       64.7100000000        -0.0233120000
       21.0600000000        -0.0639550000
        7.4950000000        -0.1499810000
        2.7970000000        -0.1272620000
        0.5215000000         0.5445290000
 s    1  1.00
        0.1596000000         1.0000000000
 p    3  1.00
        9.4390000000         0.0381090000
        2.0020000000         0.2094800000
        0.5456000000         0.5085570000
 p    1  1.00
        0.1517000000         1.0000000000
 d    1  1.00
        0.5500000000         1.0000000000

  9 0
 s    8  1.00
    14710.0000000000         0.0007210000
     2207.0000000000         0.0055530000
      502.8000000000         0.0282670000
      142.6000000000         0.1064440000
       46.4700000000         0.2868140000
       16.7000000000         0.4486410000
        6.3560000000         0.2647610000
        1.3160000000         0.0153330000
 s    8  1.00
    14710.0000000000        -0.0001650000
     2207.0000000000        -0.0013080000
      502.8000000000        -0.0064950000
      142.6000000000        -0.0266910000
       46.4700000000        -0.0736900000
       16.7000000000        -0.1707760000
        6.3560000000        -0.1123270000
        1.3160000000         0.5628140000
 s    1  1.00
        0.3897000000         1.0000000000
 p    3  1.00
       22.6700000000         0.0448780000
        4.9770000000         0.2357180000
        1.3470000000         0.5085210000
 p    1  1.00
        0.3471000000         1.0000000000
 d    1  1.00
        1.6400000000         1.0000000000

  10 0
 s    8  1.00
    14710.0000000000         0.0007210000
     2207.0000000000         0.0055530000
      502.8000000000         0.0282670000
      142.6000000000         0.1064440000
       46.4700000000         0.2868140000
       16.7000000000         0.4486410000
        6.3560000000         0.2647610000
        1.3160000000         0.0153330000
 s    8  1.00
    14710.0000000000        -0.0001650000
     2207.0000000000        -0.0013080000
      502.8000000000        -0.0064950000
      142.6000000000        -0.0266910000
       46.4700000000        -0.0736900000
       16.7000000000        -0.1707760000
        6.3560000000        -0.1123270000
        1.3160000000         0.5628140000
 s    1  1.00
        0.3897000000         1.0000000000
 p    3  1.00
       22.6700000000         0.0448780000
        4.9770000000         0.2357180000
        1.3470000000         0.5085210000
 p    1  1.00
        0.3471000000         1.0000000000
 d    1  1.00
        1.6400000000         1.0000000000

  11 0
 s    8  1.00
    14710.0000000000         0.0007210000
     2207.0000000000         0.0055530000
      502.8000000000         0.0282670000
      142.6000000000         0.1064440000
       46.4700000000         0.2868140000
       16.7000000000         0.4486410000
        6.3560000000         0.2647610000
        1.3160000000         0.0153330000
 s    8  1.00
    14710.0000000000        -0.0001650000
     2207.0000000000        -0.0013080000
      502.8000000000        -0.0064950000
      142.6000000000        -0.0266910000
       46.4700000000        -0.0736900000
       16.7000000000        -0.1707760000
        6.3560000000        -0.1123270000
        1.3160000000         0.5628140000
 s    1  1.00
        0.3897000000         1.0000000000
 p    3  1.00
       22.6700000000         0.0448780000
        4.9770000000         0.2357180000
        1.3470000000         0.5085210000
 p    1  1.00
        0.3471000000         1.0000000000
 d    1  1.00
        1.6400000000         1.0000000000

  12 0
 s    8  1.00
    14710.0000000000         0.0007210000
     2207.0000000000         0.0055530000
      502.8000000000         0.0282670000
      142.6000000000         0.1064440000
       46.4700000000         0.2868140000
       16.7000000000         0.4486410000
        6.3560000000         0.2647610000
        1.3160000000         0.0153330000
 s    8  1.00
    14710.0000000000        -0.0001650000
     2207.0000000000        -0.0013080000
      502.8000000000        -0.0064950000
      142.6000000000        -0.0266910000
       46.4700000000        -0.0736900000
       16.7000000000        -0.1707760000
        6.3560000000        -0.1123270000
        1.3160000000         0.5628140000
 s    1  1.00
        0.3897000000         1.0000000000
 p    3  1.00
       22.6700000000         0.0448780000
        4.9770000000         0.2357180000
        1.3470000000         0.5085210000
 p    1  1.00
        0.3471000000         1.0000000000
 d    1  1.00
        1.6400000000         1.0000000000

  13 0
 s    8  1.00
    14710.0000000000         0.0007210000
     2207.0000000000         0.0055530000
      502.8000000000         0.0282670000
      142.6000000000         0.1064440000
       46.4700000000         0.2868140000
       16.7000000000         0.4486410000
        6.3560000000         0.2647610000
        1.3160000000         0.0153330000
 s    8  1.00
    14710.0000000000        -0.0001650000
     2207.0000000000        -0.0013080000
      502.8000000000        -0.0064950000
      142.6000000000        -0.0266910000
       46.4700000000        -0.0736900000
       16.7000000000        -0.1707760000
        6.3560000000        -0.1123270000
        1.3160000000         0.5628140000
 s    1  1.00
        0.3897000000         1.0000000000
 p    3  1.00
       22.6700000000         0.0448780000
        4.9770000000         0.2357180000
        1.3470000000         0.5085210000
 p    1  1.00
        0.3471000000         1.0000000000
 d    1  1.00
        1.6400000000         1.0000000000

  14 0
 s    8  1.00
    14710.0000000000         0.0007210000
     2207.0000000000         0.0055530000
      502.8000000000         0.0282670000
      142.6000000000         0.1064440000
       46.4700000000         0.2868140000
       16.7000000000         0.4486410000
        6.3560000000         0.2647610000
        1.3160000000         0.0153330000
 s    8  1.00
    14710.0000000000        -0.0001650000
     2207.0000000000        -0.0013080000
      502.8000000000        -0.0064950000
      142.6000000000        -0.0266910000
       46.4700000000        -0.0736900000
       16.7000000000        -0.1707760000
        6.3560000000        -0.1123270000
        1.3160000000         0.5628140000
 s    1  1.00
        0.3897000000         1.0000000000
 p    3  1.00
       22.6700000000         0.0448780000
        4.9770000000         0.2357180000
        1.3470000000         0.5085210000
 p    1  1.00
        0.3471000000         1.0000000000
 d    1  1.00
        1.6400000000         1.0000000000

  15 0
 s    8  1.00
    14710.0000000000         0.0007210000
     2207.0000000000         0.0055530000
      502.8000000000         0.0282670000
      142.6000000000         0.1064440000
       46.4700000000         0.2868140000
       16.7000000000         0.4486410000
        6.3560000000         0.2647610000
        1.3160000000         0.0153330000
 s    8  1.00
    14710.0000000000        -0.0001650000
     2207.0000000000        -0.0013080000
      502.8000000000        -0.0064950000
      142.6000000000        -0.0266910000
       46.4700000000        -0.0736900000
       16.7000000000        -0.1707760000
        6.3560000000        -0.1123270000
        1.3160000000         0.5628140000
 s    1  1.00
        0.3897000000         1.0000000000
 p    3  1.00
       22.6700000000         0.0448780000
        4.9770000000         0.2357180000
        1.3470000000         0.5085210000
 p    1  1.00
        0.3471000000         1.0000000000
 d    1  1.00
        1.6400000000         1.0000000000

  16 0
 s    8  1.00
    14710.0000000000         0.0007210000
     2207.0000000000         0.0055530000
      502.8000000000         0.0282670000
      142.6000000000         0.1064440000
       46.4700000000         0.2868140000
       16.7000000000         0.4486410000
        6.3560000000         0.2647610000
        1.3160000000         0.0153330000
 s    8  1.00
    14710.0000000000        -0.0001650000
     2207.0000000000        -0.0013080000
      502.8000000000        -0.0064950000
      142.6000000000        -0.0266910000
       46.4700000000        -0.0736900000
       16.7000000000        -0.1707760000
        6.3560000000        -0.1123270000
        1.3160000000         0.5628140000
 s    1  1.00
        0.3897000000         1.0000000000
 p    3  1.00
       22.6700000000         0.0448780000
        4.9770000000         0.2357180000
        1.3470000000         0.5085210000
 p    1  1.00
        0.3471000000         1.0000000000
 d    1  1.00
        1.6400000000         1.0000000000

[5D7F]
[9G]

[MO]
 Sym= A
 Ene=        -2.6365166201e+01
 Spin= Alpha
 Occup=         2.0000000000e+00
  1        -1.5545273195e-04
  2        -2.3780215207e-04
  3         1.1000034237e-03
  4        -5.9623258588e-05
  5        -5.9458194184e-05
  6        -5.9524665918e-05
  7        -8.4836487164e-04
  8        -8.4925274090e-04
  9        -8.4888978041e-04
 10        -1.6546923284e-08
 11         3.8274228548e-05
 12         3.8722492594e-05
 13         1.4556085235e-07
 14         3.8453081164e-05
 15         1.5447982609e-04
 16         2.3573107061e-04
 17        -1.1056325928e-03
 18         6.0121809159e-05
 19         6.0288310526e-05
 20        -5.9964806743e-05
 21         8.5386333016e-04
 22         8.5295386118e-04
 23        -8.5471333527e-04
 24         2.4427210378e-07
 25         3.9368195466e-05
 26         3.8919894443e-05
 27         1.4646471103e-07
 28        -3.8495019600e-05
 29         1.5476778144e-04
 30         2.3634432541e-04
 31        -1.1039581324e-03
 32         5.9990759263e-05
 33        -5.9767959639e-05
 34         6.0091461832e-05
 35         8.5214027757e-04
 36        -8.5334351485e-04
 37         8.5158496951e-04
 38        -2.1544732747e-07
 39        -3.8303584964e-05
 40         3.8907301064e-05
 41        -1.9634852334e-07
 42         3.9176747965e-05
 43        -1.5404556742e-04
 44        -2.3480674440e-04
 45         1.1081418040e-03
 46        -6.0260996631e-05
 47         6.0484717290e-05
 48         6.0418243951e-05
 49        -8.5676710240e-04
 50         8.5554970520e-04
 51         8.5591360073e-04
 52         4.6183625880e-08
 53        -3.9386818709e-05
 54         3.8783073811e-05
 55        -1.9693412695e-07
 56        -3.9207952546e-05
 57         1.5404407700e-04
 58         2.3480515134e-04
 59        -1.1081011243e-03
 60        -6.0259886247e-05
 61         6.0482687650e-05
 62         6.0416888753e-05
 63        -8.5673904303e-04
 64         8.5553490806e-04
 65         8.5588907488e-04
 66        -4.6336305174e-08
 67         3.9385797358e-05
 68        -3.8782067955e-05
 69         1.9636802869e-07
 70         3.9206942610e-05
 71        -1.5476750401e-04
 72        -2.3634406713e-04
 73         1.1039493334e-03
 74         5.9991434907e-05
 75        -5.9767716022e-05
 76         6.0090027723e-05
 77         8.5212085578e-04
 78        -8.5333735523e-04
 79         8.5159598372e-04
 80         2.1427400511e-07
 81         3.8303340044e-05
 82        -3.8907071638e-05
 83         1.9691461842e-07
 84        -3.9176482912e-05
 85        -1.5447871874e-04
 86        -2.3572994377e-04
 87         1.1056005516e-03
 88         6.0121173994e-05
 89         6.0286240043e-05
 90        -5.9963926763e-05
 91         8.5383755678e-04
 92         8.5294879512e-04
 93        -8.5469109569e-04
 94        -2.4393597688e-07
 95        -3.9367343002e-05
 96        -3.8919066173e-05
 97        -1.4558080576e-07
 98         3.8494187251e-05
 99         1.5545270711e-04
100         2.3780209333e-04
101        -1.1000037756e-03
102        -5.9624461778e-05
103        -5.9457962072e-05
104        -5.9523759344e-05
105        -8.4834802086e-04
106        -8.4925659736e-04
107        -8.4890336594e-04
108         1.7536803310e-08
109        -3.8274255705e-05
110        -3.8722543943e-05
111        -1.4644475006e-07
112        -3.8453096880e-05
113         3.5089920375e-01
114         5.9808820644e-04
115        -2.4199653663e-03
116         2.1589054700e-04
117         2.1592299159e-04
118         2.1591021645e-04
119        -3.8565373724e-04
120        -3.8564700688e-04
121        -3.8565099839e-04
122         3.5217533207e-10
123        -4.5816504767e-05
124        -4.5792878171e-05
125        -3.5902678289e-09
126        -4.5807000645e-05
127        -3.5484400974e-01
128        -6.0284293651e-04
129         2.4399230581e-03
130        -2.1836107473e-04
131        -2.1832929229e-04
132         2.1839151833e-04
133         3.8899037443e-04
134         3.8900039390e-04
135        -3.8898268419e-04
136        -6.2124449461e-09
137        -4.6301989750e-05
138        -4.6325854698e-05
139        -3.7815368739e-09
140         4.6348353890e-05
141        -3.5367369610e-01
142        -6.0143169459e-04
143         2.4339997126e-03
144        -2.1762487539e-04
145         2.1766828867e-04
146        -2.1760580737e-04
147         3.8800080143e-04
148        -3.8799056812e-04
149         3.8800806525e-04
150         5.4882267383e-09
151         4.6197236975e-05
152        -4.6165317998e-05
153         4.9177280852e-09
154        -4.6150931681e-05
155         3.5660370240e-01
156         6.0496365314e-04
157        -2.4488248401e-03
158         2.1947914257e-04
159        -2.1943625659e-04
160        -2.1944875867e-04
161        -3.9047431070e-04
162         3.9048673214e-04
163         3.9048251844e-04
164        -1.1285815540e-09
165         4.6543450719e-05
166        -4.6575545118e-05
167         5.0670293852e-09
168         4.6553016273e-05
169        -3.5659352518e-01
170        -6.0494762816e-04
171         2.4487587963e-03
172         2.1947302079e-04
173        -2.1942986798e-04
174        -2.1944256579e-04
175        -3.9046483070e-04
176         3.9047527668e-04
177         3.9047251206e-04
178         1.1514699980e-09
179        -4.6542209237e-05
180         4.6574188148e-05
181        -4.9821790999e-09
182        -4.6551690063e-05
183         3.5367141237e-01
184         6.0142816257e-04
185        -2.4339851286e-03
186        -2.1762376969e-04
187         2.1766691614e-04
188        -2.1760408931e-04
189         3.8800067830e-04
190        -3.8798846954e-04
191         3.8800340856e-04
192        -5.3123556936e-09
193        -4.6196928835e-05
194         4.6164894370e-05
195        -5.0025828945e-09
196         4.6150773095e-05
197         3.5483586984e-01
198         6.0283021468e-04
199        -2.4398705860e-03
200        -2.1835625126e-04
201        -2.1832405218e-04
202         2.1838662372e-04
203         3.8898336138e-04
204         3.8899029637e-04
205        -3.8897514472e-04
206         6.1620526984e-09
207         4.6301048715e-05
208         4.6324733348e-05
209         3.6490568831e-09
210        -4.6347263302e-05
211        -3.5089936247e-01
212        -5.9808840214e-04
213         2.4199661971e-03
214         2.1589098702e-04
215         2.1592301499e-04
216         2.1591004411e-04
217        -3.8565641877e-04
218        -3.8564660396e-04
219        -3.8564914632e-04
220        -5.0053892819e-10
221         4.5816559618e-05
222         4.5792752711e-05
223         3.7227561070e-09
224         4.5807140224e-05
 Sym= A
 Ene=        -2.6365164662e+01
 Spin= Alpha
 Occup=         2.0000000000e+00
  1        -1.0974340815e-05
  2        -1.1736463406e-05
  3         2.9931539887e-04
  4        -7.6034215566e-05
  5         1.1254526098e-05
  6         3.1707932050e-05
  7         7.7252990909e-04
  8        -4.8665864129e-04
  9        -7.8170977641e-04
 10        -4.5574848804e-05
 11         7.0682991006e-06
 12         8.5393877802e-06
 13         5.3749063459e-05
 14         6.7233901566e-06
 15        -4.9277687048e-05
 16        -5.1836240246e-05
 17         1.3717083074e-03
 18        -1.8095545166e-05
 19        -1.0538448800e-04
 20         2.8757599950e-05
 21        -1.2284436563e-03
 22         3.0746211909e-05
 23         1.0746376380e-03
 24        -2.3451205455e-05
 25        -3.5645956539e-05
 26        -3.4174284412e-05
 27        -5.3749253171e-05
 28         3.4353988211e-05
 29        -2.4097868210e-05
 30        -2.5474924332e-05
 31         6.6676806585e-04
 32         2.1651669869e-05
 33         9.4636819036e-06
 34        -8.6090579909e-05
 35        -1.0358789711e-03
 36         5.8702238722e-04
 37         5.1836126001e-04
 38         6.5545167745e-05
 39         1.6535373992e-05
 40        -1.6011051855e-05
 41        -1.9159637077e-05
 42        -1.7827323731e-05
 43         8.3360000912e-05
 44         8.7024594728e-05
 45        -2.3416802963e-03
 46         7.2875251169e-05
 47        -1.0399071590e-04
 48        -8.3537320604e-05
 49         1.4939554458e-03
 50        -1.0450979920e-03
 51        -1.3401493519e-03
 52         3.4809294320e-06
 53         6.0032345282e-05
 54        -5.9507665199e-05
 55         1.9159744442e-05
 56         5.9687408404e-05
 57         8.3363431320e-05
 58         8.7030183760e-05
 59        -2.3416972305e-03
 60        -7.2876046947e-05
 61         1.0399138923e-04
 62         8.3538102042e-05
 63        -1.4939678912e-03
 64         1.0451110992e-03
 65         1.3401618751e-03
 66         3.4808818082e-06
 67         6.0032584917e-05
 68        -5.9508236051e-05
 69         1.9159636678e-05
 70         5.9687940500e-05
 71        -2.4100382534e-05
 72        -2.5478563756e-05
 73         6.6679028486e-04
 74        -2.1650372072e-05
 75        -9.4651022271e-06
 76         8.6091775796e-05
 77         1.0358964056e-03
 78        -5.8703915577e-04
 79        -5.1834327210e-04
 80         6.5545001577e-05
 81         1.6536552241e-05
 82        -1.6011898927e-05
 83        -1.9159745038e-05
 84        -1.7827894971e-05
 85        -4.9280673059e-05
 86        -5.1840883431e-05
 87         1.3717278079e-03
 88         1.8096629743e-05
 89         1.0538536248e-04
 90        -2.8758698838e-05
 91         1.2284582783e-03
 92        -3.0730452302e-05
 93        -1.0746521823e-03
 94        -2.3451084023e-05
 95        -3.5646215211e-05
 96        -3.4175111362e-05
 97        -5.3749068111e-05
 98         3.4354853910e-05
 99        -1.0971888889e-05
100        -1.1732956813e-05
101         2.9929281926e-04
102         7.6032977102e-05
103        -1.1255974674e-05
104        -3.1709272444e-05
105        -7.7254819185e-04
106         4.8664150010e-04
107         7.8169204705e-04
108        -4.5574845689e-05
109         7.0671181392e-06
110         8.5387750768e-06
111         5.3749248708e-05
112         6.7225016405e-06
113         7.4873475201e-02
114         1.1790421932e-04
115        -4.8592017370e-04
116         6.4734247002e-05
117         3.9400564658e-05
118         3.3464417284e-05
119        -2.1557310182e-04
120        -2.8011166963e-05
121         1.5938014147e-05
122         6.8309029677e-06
123        -1.2422328838e-05
124        -1.4572953769e-06
125        -8.0560847118e-06
126        -1.4991650096e-05
127         3.4500134039e-01
128         5.4183048341e-04
129        -2.2336882529e-03
130         2.0186167795e-04
131         2.2719544623e-04
132        -2.0495610013e-04
133        -2.7899659884e-04
134        -4.6655862056e-04
135         3.0190670624e-04
136         3.5149484738e-06
137         3.7551447777e-05
138         4.8516539278e-05
139         8.0561189275e-06
140        -4.7177194767e-05
141         1.6743038797e-01
142         2.6315868679e-04
143        -1.0847774226e-03
144         8.9130199876e-05
145        -9.8160811506e-05
146         1.2039998612e-04
147        -7.0059312332e-05
148         1.3691860663e-04
149        -3.0157042208e-04
150        -9.8240934446e-06
151        -2.3450365715e-05
152         2.7359020190e-05
153         2.8717195617e-06
154         1.3824656863e-05
155        -5.9037975846e-01
156        -9.2611445523e-04
157         3.8183704991e-03
158        -3.5760382856e-04
159         3.6663472420e-04
160         3.6069826049e-04
161         5.6719163312e-04
162        -6.3405109392e-04
163        -5.9010174670e-04
164        -5.2177816700e-07
165        -7.3898651675e-05
166         7.7807395746e-05
167        -2.8718043602e-06
168        -7.6468045079e-05
169        -5.9038390487e-01
170        -9.2612267598e-04
171         3.8184033420e-03
172         3.5760635600e-04
173        -3.6663727541e-04
174        -3.6070079072e-04
175        -5.6719677495e-04
176         6.3405622985e-04
177         5.9010688777e-04
178        -5.2177696237e-07
179        -7.3899200932e-05
180         7.7807927463e-05
181        -2.8718016375e-06
182        -7.6468578845e-05
183         1.6743824369e-01
184         2.6317137751e-04
185        -1.0848290268e-03
186        -8.9135043829e-05
187         9.8165631782e-05
188        -1.2040484979e-04
189         7.0067592172e-05
190        -1.3692689290e-04
191         3.0157869671e-04
192        -9.8240892438e-06
193        -2.3451376316e-05
194         2.7360048350e-05
195         2.8717222909e-06
196         1.3825699640e-05
197         3.4500728703e-01
198         5.4184087370e-04
199        -2.2337302016e-03
200        -2.0186532093e-04