[Molden Format]
[Atoms] (AU)
C    1    6          -1.4698289804        -1.4698289804        -1.4698289804
C    2    6          -1.4698289804        -1.4698289804         1.4698289804
C    3    6          -1.4698289804         1.4698289804        -1.4698289804
C    4    6          -1.4698289804         1.4698289804         1.4698289804
C    5    6           1.4698289804        -1.4698289804        -1.4698289804
C    6    6           1.4698289804        -1.4698289804         1.4698289804
C    7    6           1.4698289804         1.4698289804        -1.4698289804
C    8    6           1.4698289804         1.4698289804         1.4698289804
F    9    9          -2.9880349496        -2.9880349496        -2.9880349496
F   10    9          -2.9880349496        -2.9880349496         2.9880349496
F   11    9          -2.9880349496         2.9880349496        -2.9880349496
F   12    9          -2.9880349496         2.9880349496         2.9880349496
F   13    9           2.9880349496        -2.9880349496        -2.9880349496
F   14    9           2.9880349496        -2.9880349496         2.9880349496
F   15    9           2.9880349496         2.9880349496        -2.9880349496
F   16    9           2.9880349496         2.9880349496         2.9880349496
[GTO]
  1 0
 s    8  1.00
     6665.0000000000         0.0006920000
     1000.0000000000         0.0053290000
      228.0000000000         0.0270770000
       64.7100000000         0.1017180000
       21.0600000000         0.2747400000
        7.4950000000         0.4485640000
        2.7970000000         0.2850740000
        0.5215000000         0.0152040000
 s    8  1.00
     6665.0000000000        -0.0001460000
     1000.0000000000        -0.0011540000
      228.0000000000        -0.0057250000
       64.7100000000        -0.0233120000
       21.0600000000        -0.0639550000
        7.4950000000        -0.1499810000
        2.7970000000        -0.1272620000
        0.5215000000         0.5445290000
 s    1  1.00
        0.1596000000         1.0000000000
 p    3  1.00
        9.4390000000         0.0381090000
        2.0020000000         0.2094800000
        0.5456000000         0.5085570000
 p    1  1.00
        0.1517000000         1.0000000000
 d    1  1.00
        0.5500000000         1.0000000000
 s    1  1.00
        0.0469000000         1.0000000000
 p    1  1.00
        0.0404100000         1.0000000000
 d    1  1.00
        0.1510000000         1.0000000000

  2 0
 s    8  1.00
     6665.0000000000         0.0006920000
     1000.0000000000         0.0053290000
      228.0000000000         0.0270770000
       64.7100000000         0.1017180000
       21.0600000000         0.2747400000
        7.4950000000         0.4485640000
        2.7970000000         0.2850740000
        0.5215000000         0.0152040000
 s    8  1.00
     6665.0000000000        -0.0001460000
     1000.0000000000        -0.0011540000
      228.0000000000        -0.0057250000
       64.7100000000        -0.0233120000
       21.0600000000        -0.0639550000
        7.4950000000        -0.1499810000
        2.7970000000        -0.1272620000
        0.5215000000         0.5445290000
 s    1  1.00
        0.1596000000         1.0000000000
 p    3  1.00
        9.4390000000         0.0381090000
        2.0020000000         0.2094800000
        0.5456000000         0.5085570000
 p    1  1.00
        0.1517000000         1.0000000000
 d    1  1.00
        0.5500000000         1.0000000000
 s    1  1.00
        0.0469000000         1.0000000000
 p    1  1.00
        0.0404100000         1.0000000000
 d    1  1.00
        0.1510000000         1.0000000000

  3 0
 s    8  1.00
     6665.0000000000         0.0006920000
     1000.0000000000         0.0053290000
      228.0000000000         0.0270770000
       64.7100000000         0.1017180000
       21.0600000000         0.2747400000
        7.4950000000         0.4485640000
        2.7970000000         0.2850740000
        0.5215000000         0.0152040000
 s    8  1.00
     6665.0000000000        -0.0001460000
     1000.0000000000        -0.0011540000
      228.0000000000        -0.0057250000
       64.7100000000        -0.0233120000
       21.0600000000        -0.0639550000
        7.4950000000        -0.1499810000
        2.7970000000        -0.1272620000
        0.5215000000         0.5445290000
 s    1  1.00
        0.1596000000         1.0000000000
 p    3  1.00
        9.4390000000         0.0381090000
        2.0020000000         0.2094800000
        0.5456000000         0.5085570000
 p    1  1.00
        0.1517000000         1.0000000000
 d    1  1.00
        0.5500000000         1.0000000000
 s    1  1.00
        0.0469000000         1.0000000000
 p    1  1.00
        0.0404100000         1.0000000000
 d    1  1.00
        0.1510000000         1.0000000000

  4 0
 s    8  1.00
     6665.0000000000         0.0006920000
     1000.0000000000         0.0053290000
      228.0000000000         0.0270770000
       64.7100000000         0.1017180000
       21.0600000000         0.2747400000
        7.4950000000         0.4485640000
        2.7970000000         0.2850740000
        0.5215000000         0.0152040000
 s    8  1.00
     6665.0000000000        -0.0001460000
     1000.0000000000        -0.0011540000
      228.0000000000        -0.0057250000
       64.7100000000        -0.0233120000
       21.0600000000        -0.0639550000
        7.4950000000        -0.1499810000
        2.7970000000        -0.1272620000
        0.5215000000         0.5445290000
 s    1  1.00
        0.1596000000         1.0000000000
 p    3  1.00
        9.4390000000         0.0381090000
        2.0020000000         0.2094800000
        0.5456000000         0.5085570000
 p    1  1.00
        0.1517000000         1.0000000000
 d    1  1.00
        0.5500000000         1.0000000000
 s    1  1.00
        0.0469000000         1.0000000000
 p    1  1.00
        0.0404100000         1.0000000000
 d    1  1.00
        0.1510000000         1.0000000000

  5 0
 s    8  1.00
     6665.0000000000         0.0006920000
     1000.0000000000         0.0053290000
      228.0000000000         0.0270770000
       64.7100000000         0.1017180000
       21.0600000000         0.2747400000
        7.4950000000         0.4485640000
        2.7970000000         0.2850740000
        0.5215000000         0.0152040000
 s    8  1.00
     6665.0000000000        -0.0001460000
     1000.0000000000        -0.0011540000
      228.0000000000        -0.0057250000
       64.7100000000        -0.0233120000
       21.0600000000        -0.0639550000
        7.4950000000        -0.1499810000
        2.7970000000        -0.1272620000
        0.5215000000         0.5445290000
 s    1  1.00
        0.1596000000         1.0000000000
 p    3  1.00
        9.4390000000         0.0381090000
        2.0020000000         0.2094800000
        0.5456000000         0.5085570000
 p    1  1.00
        0.1517000000         1.0000000000
 d    1  1.00
        0.5500000000         1.0000000000
 s    1  1.00
        0.0469000000         1.0000000000
 p    1  1.00
        0.0404100000         1.0000000000
 d    1  1.00
        0.1510000000         1.0000000000

  6 0
 s    8  1.00
     6665.0000000000         0.0006920000
     1000.0000000000         0.0053290000
      228.0000000000         0.0270770000
       64.7100000000         0.1017180000
       21.0600000000         0.2747400000
        7.4950000000         0.4485640000
        2.7970000000         0.2850740000
        0.5215000000         0.0152040000
 s    8  1.00
     6665.0000000000        -0.0001460000
     1000.0000000000        -0.0011540000
      228.0000000000        -0.0057250000
       64.7100000000        -0.0233120000
       21.0600000000        -0.0639550000
        7.4950000000        -0.1499810000
        2.7970000000        -0.1272620000
        0.5215000000         0.5445290000
 s    1  1.00
        0.1596000000         1.0000000000
 p    3  1.00
        9.4390000000         0.0381090000
        2.0020000000         0.2094800000
        0.5456000000         0.5085570000
 p    1  1.00
        0.1517000000         1.0000000000
 d    1  1.00
        0.5500000000         1.0000000000
 s    1  1.00
        0.0469000000         1.0000000000
 p    1  1.00
        0.0404100000         1.0000000000
 d    1  1.00
        0.1510000000         1.0000000000

  7 0
 s    8  1.00
     6665.0000000000         0.0006920000
     1000.0000000000         0.0053290000
      228.0000000000         0.0270770000
       64.7100000000         0.1017180000
       21.0600000000         0.2747400000
        7.4950000000         0.4485640000
        2.7970000000         0.2850740000
        0.5215000000         0.0152040000
 s    8  1.00
     6665.0000000000        -0.0001460000
     1000.0000000000        -0.0011540000
      228.0000000000        -0.0057250000
       64.7100000000        -0.0233120000
       21.0600000000        -0.0639550000
        7.4950000000        -0.1499810000
        2.7970000000        -0.1272620000
        0.5215000000         0.5445290000
 s    1  1.00
        0.1596000000         1.0000000000
 p    3  1.00
        9.4390000000         0.0381090000
        2.0020000000         0.2094800000
        0.5456000000         0.5085570000
 p    1  1.00
        0.1517000000         1.0000000000
 d    1  1.00
        0.5500000000         1.0000000000
 s    1  1.00
        0.0469000000         1.0000000000
 p    1  1.00
        0.0404100000         1.0000000000
 d    1  1.00
        0.1510000000         1.0000000000

  8 0
 s    8  1.00
     6665.0000000000         0.0006920000
     1000.0000000000         0.0053290000
      228.0000000000         0.0270770000
       64.7100000000         0.1017180000
       21.0600000000         0.2747400000
        7.4950000000         0.4485640000
        2.7970000000         0.2850740000
        0.5215000000         0.0152040000
 s    8  1.00
     6665.0000000000        -0.0001460000
     1000.0000000000        -0.0011540000
      228.0000000000        -0.0057250000
       64.7100000000        -0.0233120000
       21.0600000000        -0.0639550000
        7.4950000000        -0.1499810000
        2.7970000000        -0.1272620000
        0.5215000000         0.5445290000
 s    1  1.00
        0.1596000000         1.0000000000
 p    3  1.00
        9.4390000000         0.0381090000
        2.0020000000         0.2094800000
        0.5456000000         0.5085570000
 p    1  1.00
        0.1517000000         1.0000000000
 d    1  1.00
        0.5500000000         1.0000000000
 s    1  1.00
        0.0469000000         1.0000000000
 p    1  1.00
        0.0404100000         1.0000000000
 d    1  1.00
        0.1510000000         1.0000000000

  9 0
 s    8  1.00
    14710.0000000000         0.0007210000
     2207.0000000000         0.0055530000
      502.8000000000         0.0282670000
      142.6000000000         0.1064440000
       46.4700000000         0.2868140000
       16.7000000000         0.4486410000
        6.3560000000         0.2647610000
        1.3160000000         0.0153330000
 s    8  1.00
    14710.0000000000        -0.0001650000
     2207.0000000000        -0.0013080000
      502.8000000000        -0.0064950000
      142.6000000000        -0.0266910000
       46.4700000000        -0.0736900000
       16.7000000000        -0.1707760000
        6.3560000000        -0.1123270000
        1.3160000000         0.5628140000
 s    1  1.00
        0.3897000000         1.0000000000
 p    3  1.00
       22.6700000000         0.0448780000
        4.9770000000         0.2357180000
        1.3470000000         0.5085210000
 p    1  1.00
        0.3471000000         1.0000000000
 d    1  1.00
        1.6400000000         1.0000000000
 s    1  1.00
        0.0986300000         1.0000000000
 p    1  1.00
        0.0850200000         1.0000000000
 d    1  1.00
        0.4640000000         1.0000000000

  10 0
 s    8  1.00
    14710.0000000000         0.0007210000
     2207.0000000000         0.0055530000
      502.8000000000         0.0282670000
      142.6000000000         0.1064440000
       46.4700000000         0.2868140000
       16.7000000000         0.4486410000
        6.3560000000         0.2647610000
        1.3160000000         0.0153330000
 s    8  1.00
    14710.0000000000        -0.0001650000
     2207.0000000000        -0.0013080000
      502.8000000000        -0.0064950000
      142.6000000000        -0.0266910000
       46.4700000000        -0.0736900000
       16.7000000000        -0.1707760000
        6.3560000000        -0.1123270000
        1.3160000000         0.5628140000
 s    1  1.00
        0.3897000000         1.0000000000
 p    3  1.00
       22.6700000000         0.0448780000
        4.9770000000         0.2357180000
        1.3470000000         0.5085210000
 p    1  1.00
        0.3471000000         1.0000000000
 d    1  1.00
        1.6400000000         1.0000000000
 s    1  1.00
        0.0986300000         1.0000000000
 p    1  1.00
        0.0850200000         1.0000000000
 d    1  1.00
        0.4640000000         1.0000000000

  11 0
 s    8  1.00
    14710.0000000000         0.0007210000
     2207.0000000000         0.0055530000
      502.8000000000         0.0282670000
      142.6000000000         0.1064440000
       46.4700000000         0.2868140000
       16.7000000000         0.4486410000
        6.3560000000         0.2647610000
        1.3160000000         0.0153330000
 s    8  1.00
    14710.0000000000        -0.0001650000
     2207.0000000000        -0.0013080000
      502.8000000000        -0.0064950000
      142.6000000000        -0.0266910000
       46.4700000000        -0.0736900000
       16.7000000000        -0.1707760000
        6.3560000000        -0.1123270000
        1.3160000000         0.5628140000
 s    1  1.00
        0.3897000000         1.0000000000
 p    3  1.00
       22.6700000000         0.0448780000
        4.9770000000         0.2357180000
        1.3470000000         0.5085210000
 p    1  1.00
        0.3471000000         1.0000000000
 d    1  1.00
        1.6400000000         1.0000000000
 s    1  1.00
        0.0986300000         1.0000000000
 p    1  1.00
        0.0850200000         1.0000000000
 d    1  1.00
        0.4640000000         1.0000000000

  12 0
 s    8  1.00
    14710.0000000000         0.0007210000
     2207.0000000000         0.0055530000
      502.8000000000         0.0282670000
      142.6000000000         0.1064440000
       46.4700000000         0.2868140000
       16.7000000000         0.4486410000
        6.3560000000         0.2647610000
        1.3160000000         0.0153330000
 s    8  1.00
    14710.0000000000        -0.0001650000
     2207.0000000000        -0.0013080000
      502.8000000000        -0.0064950000
      142.6000000000        -0.0266910000
       46.4700000000        -0.0736900000
       16.7000000000        -0.1707760000
        6.3560000000        -0.1123270000
        1.3160000000         0.5628140000
 s    1  1.00
        0.3897000000         1.0000000000
 p    3  1.00
       22.6700000000         0.0448780000
        4.9770000000         0.2357180000
        1.3470000000         0.5085210000
 p    1  1.00
        0.3471000000         1.0000000000
 d    1  1.00
        1.6400000000         1.0000000000
 s    1  1.00
        0.0986300000         1.0000000000
 p    1  1.00
        0.0850200000         1.0000000000
 d    1  1.00
        0.4640000000         1.0000000000

  13 0
 s    8  1.00
    14710.0000000000         0.0007210000
     2207.0000000000         0.0055530000
      502.8000000000         0.0282670000
      142.6000000000         0.1064440000
       46.4700000000         0.2868140000
       16.7000000000         0.4486410000
        6.3560000000         0.2647610000
        1.3160000000         0.0153330000
 s    8  1.00
    14710.0000000000        -0.0001650000
     2207.0000000000        -0.0013080000
      502.8000000000        -0.0064950000
      142.6000000000        -0.0266910000
       46.4700000000        -0.0736900000
       16.7000000000        -0.1707760000
        6.3560000000        -0.1123270000
        1.3160000000         0.5628140000
 s    1  1.00
        0.3897000000         1.0000000000
 p    3  1.00
       22.6700000000         0.0448780000
        4.9770000000         0.2357180000
        1.3470000000         0.5085210000
 p    1  1.00
        0.3471000000         1.0000000000
 d    1  1.00
        1.6400000000         1.0000000000
 s    1  1.00
        0.0986300000         1.0000000000
 p    1  1.00
        0.0850200000         1.0000000000
 d    1  1.00
        0.4640000000         1.0000000000

  14 0
 s    8  1.00
    14710.0000000000         0.0007210000
     2207.0000000000         0.0055530000
      502.8000000000         0.0282670000
      142.6000000000         0.1064440000
       46.4700000000         0.2868140000
       16.7000000000         0.4486410000
        6.3560000000         0.2647610000
        1.3160000000         0.0153330000
 s    8  1.00
    14710.0000000000        -0.0001650000
     2207.0000000000        -0.0013080000
      502.8000000000        -0.0064950000
      142.6000000000        -0.0266910000
       46.4700000000        -0.0736900000
       16.7000000000        -0.1707760000
        6.3560000000        -0.1123270000
        1.3160000000         0.5628140000
 s    1  1.00
        0.3897000000         1.0000000000
 p    3  1.00
       22.6700000000         0.0448780000
        4.9770000000         0.2357180000
        1.3470000000         0.5085210000
 p    1  1.00
        0.3471000000         1.0000000000
 d    1  1.00
        1.6400000000         1.0000000000
 s    1  1.00
        0.0986300000         1.0000000000
 p    1  1.00
        0.0850200000         1.0000000000
 d    1  1.00
        0.4640000000         1.0000000000

  15 0
 s    8  1.00
    14710.0000000000         0.0007210000
     2207.0000000000         0.0055530000
      502.8000000000         0.0282670000
      142.6000000000         0.1064440000
       46.4700000000         0.2868140000
       16.7000000000         0.4486410000
        6.3560000000         0.2647610000
        1.3160000000         0.0153330000
 s    8  1.00
    14710.0000000000        -0.0001650000
     2207.0000000000        -0.0013080000
      502.8000000000        -0.0064950000
      142.6000000000        -0.0266910000
       46.4700000000        -0.0736900000
       16.7000000000        -0.1707760000
        6.3560000000        -0.1123270000
        1.3160000000         0.5628140000
 s    1  1.00
        0.3897000000         1.0000000000
 p    3  1.00
       22.6700000000         0.0448780000
        4.9770000000         0.2357180000
        1.3470000000         0.5085210000
 p    1  1.00
        0.3471000000         1.0000000000
 d    1  1.00
        1.6400000000         1.0000000000
 s    1  1.00
        0.0986300000         1.0000000000
 p    1  1.00
        0.0850200000         1.0000000000
 d    1  1.00
        0.4640000000         1.0000000000

  16 0
 s    8  1.00
    14710.0000000000         0.0007210000
     2207.0000000000         0.0055530000
      502.8000000000         0.0282670000
      142.6000000000         0.1064440000
       46.4700000000         0.2868140000
       16.7000000000         0.4486410000
        6.3560000000         0.2647610000
        1.3160000000         0.0153330000
 s    8  1.00
    14710.0000000000        -0.0001650000
     2207.0000000000        -0.0013080000
      502.8000000000        -0.0064950000
      142.6000000000        -0.0266910000
       46.4700000000        -0.0736900000
       16.7000000000        -0.1707760000
        6.3560000000        -0.1123270000
        1.3160000000         0.5628140000
 s    1  1.00
        0.3897000000         1.0000000000
 p    3  1.00
       22.6700000000         0.0448780000
        4.9770000000         0.2357180000
        1.3470000000         0.5085210000
 p    1  1.00
        0.3471000000         1.0000000000
 d    1  1.00
        1.6400000000         1.0000000000
 s    1  1.00
        0.0986300000         1.0000000000
 p    1  1.00
        0.0850200000         1.0000000000
 d    1  1.00
        0.4640000000         1.0000000000

[5D7F]
[9G]

[MO]
 Sym= A
 Ene=        -2.6379314943e+01
 Spin= Alpha
 Occup=         2.0000000000e+00
  1        -3.7517680052e-04
  2        -5.6984189915e-04
  3         1.1286186410e-02
  4        -1.0369127789e-04
  5        -1.0288851026e-04
  6        -1.0406657419e-04
  7         5.5330911188e-03
  8         5.5759012387e-03
  9         5.5135240426e-03
 10        -6.6632799539e-07
 11         1.8696857592e-04
 12         1.8597197803e-04
 13        -6.2062982591e-07
 14         1.8551616961e-04
 15         5.1839875697e-02
 16         4.0044181685e-03
 17         3.9826330063e-03
 18         4.0137700034e-03
 19        -1.6264520035e-05
 20         5.8143547615e-03
 21         5.8397751349e-03
 22        -1.5147862535e-05
 23         5.8510210082e-03
 24         3.7506289496e-04
 25         5.6973967564e-04
 26        -1.1283607691e-02
 27         1.0265667608e-04
 28         1.0349209248e-04
 29        -1.0390334523e-04
 30        -5.5806664103e-03
 31        -5.5368688004e-03
 32         5.5157921996e-03
 33         6.6566227068e-07
 34         1.8580790663e-04
 35         1.8682795948e-04
 36        -6.0634827851e-07
 37        -1.8531667617e-04
 38        -5.1824246498e-02
 39        -3.9813295059e-03
 40        -4.0025892383e-03
 41         4.0121554486e-03
 42         1.6248888430e-05
 43         5.8366820669e-03
 44         5.8113063283e-03
 45        -1.4800340393e-05
 46        -5.8484873774e-03
 47         3.7534980975e-04
 48         5.7386993130e-04
 49        -1.1277721153e-02
 50         9.5091779413e-05
 51        -9.5151853521e-05
 52         9.4740609863e-05
 53        -5.7363485012e-03
 54         5.7341096794e-03
 55        -5.7551871628e-03
 56        -3.1791622448e-07
 57        -1.7989301561e-04
 58         1.7994579094e-04
 59         3.9997102629e-09
 60         1.8038424564e-04
 61        -5.1458602587e-02
 62        -3.9778810399e-03
 63         3.9777080544e-03
 64        -3.9681451375e-03
 65        -7.7599829699e-06
 66        -5.7460093771e-03
 67         5.7454833407e-03
 68         9.6782170745e-08
 69         5.7342039085e-03
 70        -3.7505172891e-04
 71        -5.7086606806e-04
 72         1.1279796711e-02
 73        -1.0111059761e-04
 74         1.0113313434e-04
 75         9.9955075534e-05
 76         5.5848383322e-03
 77        -5.5845850469e-03
 78        -5.6469631180e-03
 79         1.0432296578e-06
 80        -1.8362395208e-04
 81         1.8363049200e-04
 82        -3.2150077620e-08
 83        -1.8507635953e-04
 84         5.1703859256e-02
 85         4.0014521102e-03
 86        -4.0002924287e-03
 87        -3.9691587242e-03
 88         2.5462626194e-05
 89        -5.8152486367e-03
 90         5.8158870789e-03
 91        -7.8339464942e-07
 92        -5.7785822390e-03
 93         3.7505576136e-04
 94         5.7087277157e-04
 95        -1.1279834792e-02
 96        -1.0116848185e-04
 97         1.0110838335e-04
 98         9.9921804150e-05
 99         5.5830922922e-03
100        -5.5853283062e-03
101        -5.6479642627e-03
102        -1.0180590133e-06
103         1.8364207319e-04
104        -1.8358930843e-04
105        -4.0125407389e-09
106         1.8510057376e-04
107        -5.1704094604e-02
108         4.0005439189e-03
109        -4.0007201228e-03
110        -3.9697236188e-03
111        -2.4849571112e-05
112         5.8153149236e-03
113        -5.8158413238e-03
114        -9.7381376584e-08
115         5.7786596394e-03
116        -3.7511339792e-04
117        -5.7353210122e-04
118         1.1272894134e-02
119         9.5003591125e-05
120        -9.4981033467e-05
121         9.4628271769e-05
122        -5.7361639568e-03
123         5.7364147211e-03
124        -5.7557287655e-03
125         3.2657325829e-07
126         1.7978499406e-04
127        -1.7977846223e-04
128         3.2158272411e-08
129        -1.8023426035e-04
130         5.1439287705e-02
131        -3.9749496998e-03
132         3.9761122476e-03
133        -3.9656034632e-03
134         7.9709532284e-06
135         5.7432148220e-03
136        -5.7425767487e-03
137         7.8392353486e-07
138        -5.7313302630e-03
139        -3.7488690515e-04
140        -5.6948788559e-04
141         1.1280024410e-02
142         1.0260648998e-04
143         1.0340924456e-04
144        -1.0376200579e-04
145        -5.5800772480e-03
146        -5.5372643390e-03
147         5.5179501859e-03
148        -7.0346625713e-07
149        -1.8569682284e-04
150        -1.8669343645e-04
151         6.2063933337e-07
152         1.8524754826e-04
153         5.1809895796e-02
154        -3.9789113005e-03
155        -4.0006996440e-03
156         4.0112117998e-03
157        -1.7169582018e-05
158        -5.8345493911e-03
159        -5.8091294052e-03
160         1.5148435685e-05
161         5.8464338321e-03
162         3.7476484017e-04
163         5.6925585856e-04
164        -1.1277651387e-02
165        -1.0348845255e-04
166        -1.0265302525e-04
167        -1.0383960063e-04
168         5.5341083402e-03
169         5.5779034464e-03
170         5.5152673749e-03
171         6.7030426838e-07
172        -1.8672565307e-04
173        -1.8570561426e-04
174         6.0634342525e-07
175        -1.8526714589e-04
176        -5.1805957451e-02
177         3.9999720997e-03
178         3.9787151931e-03
179         4.0097150732e-03
180         1.6361189081e-05
181        -5.8093470942e-03
182        -5.8347232238e-03
183         1.4799835300e-05
184        -5.8460022677e-03
185         3.6434781997e-01
186         9.6066865891e-04
187        -4.6246360016e-03
188         2.4405950228e-04
189         2.4290680532e-04
190         2.4456978042e-04
191        -8.2076165119e-04
192        -8.1202865791e-04
193        -8.2460789806e-04
194         4.9599869989e-07
195        -2.9473857166e-05
196        -2.9130747613e-05
197         4.5051398819e-07
198        -2.8973024547e-05
199        -7.5975477889e-03
200        -8.6802422992e-04
201        -8.6363184428e-04
202        -8.6977999714e-04
203        -2.6987738956e-06
204        -1.0895422931e-04
205        -1.0972174664e-04
206        -2.4585555318e-06
207        -1.1008867171e-04
208        -3.6366023488e-01
209        -9.5908894635e-04
210         4.6173936328e-03
211        -2.4243314340e-04
212        -2.4358448624e-04
213         2.4412067594e-04
214         8.1062768724e-04
215         8.1931623451e-04
216        -8.2333908944e-04
217        -5.1695421836e-07
218        -2.9081458643e-05
219        -2.9434041784e-05
220         4.5810428980e-07
221         2.8910724707e-05
222         7.5897825206e-03
223         8.6268284159e-04
224         8.6675060749e-04
225        -8.6843278542e-04
226         2.7997295855e-06
227        -1.0957864506e-04
228        -1.0876619822e-04
229        -2.4884728993e-06
230         1.0998728630e-04
231        -3.3425069362e-01
232        -8.9384023760e-04
233         4.3202886759e-03
234        -2.2373715275e-04
235         2.2376208258e-04
236        -2.2322585110e-04
237         7.6361112170e-04
238        -7.6375484111e-04
239         7.5973194085e-04
240         2.4093560349e-07
241         2.6907849489e-05
242        -2.6927851548e-05
243         1.9944258676e-08
244        -2.7078592269e-05
245         7.3109541058e-03
246         8.2519470293e-04
247        -8.2488097732e-04
248         8.2319890419e-04
249        -1.3083990525e-06
250         1.0413997780e-04
251        -1.0406506207e-04
252        -9.4576410454e-08
253        -1.0373133311e-04
254         3.5445248136e-01
255         9.3861090145e-04
256        -4.5241033091e-03
257         2.3774954315e-04
258        -2.3772152577e-04
259        -2.3605852124e-04
260        -8.0471540582e-04
261         8.0445966201e-04
262         7.9188038618e-04
263        -7.5657519902e-07
264         2.8293942770e-05
265        -2.8297962820e-05
266         8.3374724881e-10
267         2.8794786804e-05
268        -7.5014114346e-03
269        -8.5515459494e-04
270         8.5464693624e-04
271         8.4849888845e-04
272         4.1290847364e-06
273         1.0811221328e-04
274        -1.0807350535e-04
275        -1.8827300513e-08
276         1.0697776569e-04
277        -3.5445338014e-01
278        -9.3861694792e-04
279         4.5241349788e-03
280         2.3774807729e-04
281        -2.3772302323e-04
282        -2.3606031990e-04
283        -8.0464201301e-04
284         8.0449811055e-04
285         7.9193032537e-04
286         7.6987129358e-07
287        -2.8301406820e-05
288         2.8281369137e-05
289        -1.9922641799e-08
290        -2.8804733088e-05
291         7.5014779315e-03
292        -8.5458875962e-04
293         8.5490266616e-04
294         8.4883901353e-04
295        -4.1818725550e-06
296        -1.0807784140e-04
297         1.0815275909e-04
298         9.4609453807e-08
299        -1.0693167314e-04
300         3.3383032822e-01
301         8.9279282163e-04
302        -4.3154145584e-03
303        -2.2344710336e-04
304         2.2347499764e-04
305        -2.2293666999e-04
306         7.6261588768e-04
307        -7.6287145369e-04
308         7.5876940513e-04
309        -2.3635735236e-07
310        -2.6890329031e-05
311         2.6886274193e-05
312        -8.5563766143e-10
313         2.7044043381e-05
314        -7.3044342329e-03
315         8.2380625358e-04
316        -8.2431405231e-04
317         8.2205066654e-04
318         1.2902219495e-06
319        -1.0396767607e-04
320         1.0400638312e-04
321         1.8795479483e-08
322         1.0363945553e-04
323         3.6334941096e-01
324         9.5831339320e-04
325        -4.6137836448e-03
326        -2.4221812352e-04
327        -2.4337063839e-04
328         2.4390892425e-04
329         8.0987052326e-04
330         8.1860329166e-04
331        -8.2270529569e-04
332         4.9699707505e-07
333         2.9055823121e-05
334         2.9398893787e-05