[Molden Format]
[Atoms] (AU)
H    1    1           0.0000000000         0.0000000000         0.0000000000
H    2    1           0.0000000000         0.0000000000         1.3983973328
[GTO]
  1 0
 s    3  1.00
       13.0100000000         0.0196850000
        1.9620000000         0.1379770000
        0.4446000000         0.4781480000
 s    1  1.00
        0.1220000000         1.0000000000
 p    1  1.00
        0.7270000000         1.0000000000

  2 0
 s    3  1.00
       13.0100000000         0.0196850000
        1.9620000000         0.1379770000
        0.4446000000         0.4781480000
 s    1  1.00
        0.1220000000         1.0000000000
 p    1  1.00
        0.7270000000         1.0000000000

[5D7F]
[9G]

[MO]
 Sym= A
 Ene=        -5.9241098611e-01
 Spin= Alpha
 Occup=         2.0000000000e+00
  1         4.0366476465e-01
  2         1.7376286971e-01
  3        -3.2953395152e-17
  4         5.0003376400e-26
  5         2.2497453616e-02
  6         4.0366476465e-01
  7         1.7376286971e-01
  8         3.4549860200e-17
  9        -1.6238099185e-26
 10        -2.2497453616e-02
 Sym= A
 Ene=         1.9744005556e-01
 Spin= Alpha
 Occup=         0.0000000000e+00
  1         1.5024403262e-01
  2         1.9586562436e+00
  3         1.6981900325e-16
  4         5.3837008820e-27
  5         1.4253540917e-02
  6        -1.5024403262e-01
  7        -1.9586562436e+00
  8         1.0050670388e-17
  9         1.6870029263e-26
 10         1.4253540917e-02
 Sym= A
 Ene=         4.7932104967e-01
 Spin= Alpha
 Occup=         0.0000000000e+00
  1         7.0010767736e-01
  2        -7.2637280198e-01
  3        -7.4015224523e-17
  4         1.4158882421e-26
  5         1.1266302580e-02
  6         7.0010767736e-01
  7        -7.2637280198e-01
  8         6.7753269159e-17
  9         1.0520748491e-27
 10        -1.1266302580e-02
 Sym= A
 Ene=         9.3732368510e-01
 Spin= Alpha
 Occup=         0.0000000000e+00
  1         7.6067424486e-01
  2        -1.6173427987e+00
  3        -7.9887819167e-16
  4        -3.0652902846e-26
  5        -4.1021820987e-01
  6        -7.6067424486e-01
  7         1.6173427987e+00
  8        -4.4574822403e-16
  9         4.6887189503e-26
 10        -4.1021820987e-01
 Sym= A
 Ene=         1.2929037086e+00
 Spin= Alpha
 Occup=         0.0000000000e+00
  1         8.1475284016e-17
  2        -2.9728969174e-16
  3         4.1792500706e-02
  4         5.7753408975e-01
  5        -6.4566717026e-17
  6        -5.3488929874e-17
  7         2.7734937955e-16
  8         4.1792500706e-02
  9         5.7753408975e-01
 10        -3.0811134506e-17
 Sym= A
 Ene=         1.2929037086e+00
 Spin= Alpha
 Occup=         0.0000000000e+00
  1         1.1259138175e-15
  2        -4.1082713075e-15
  3         5.7753408975e-01
  4        -4.1792500706e-02
  5        -8.9225290451e-16
  6        -7.3916802999e-16
  7         3.8327144525e-15
  8         5.7753408975e-01
  9        -4.1792500706e-02
 10        -4.2578166494e-16
 Sym= A
 Ene=         1.9570225993e+00
 Spin= Alpha
 Occup=         0.0000000000e+00
  1         4.4372807174e-01
  2        -2.2106467259e-01
  3         4.6405193728e-17
  4        -2.9720969933e-25
  5        -7.2690133376e-01
  6         4.4372807174e-01
  7        -2.2106467259e-01
  8        -7.1693755452e-16
  9         2.8585422365e-25
 10         7.2690133376e-01
 Sym= A
 Ene=         2.0435200475e+00
 Spin= Alpha
 Occup=         0.0000000000e+00
  1         1.0072372043e-25
  2        -8.9039375359e-26
  3         3.1093880625e-15
  4         9.9134997330e-01
  5        -2.6230515368e-25
  6         1.0181821100e-25
  7        -3.6579342038e-26
  8        -3.2714654139e-15
  9        -9.9134997330e-01
 10         1.7853534767e-25
 Sym= A
 Ene=         2.0435200475e+00
 Spin= Alpha
 Occup=         0.0000000000e+00
  1        -9.1222920103e-16
  2        -1.5623183096e-15
  3         9.9134997330e-01
  4        -3.1719704461e-15
  5        -8.3544802542e-16
  6         1.0144975572e-15
  7         1.2337681774e-15
  8        -9.9134997330e-01
  9         3.2960753859e-15
 10        -1.3633558887e-15
 Sym= A
 Ene=         3.6104741732e+00
 Spin= Alpha
 Occup=         0.0000000000e+00
  1         2.6861799625e+00
  2         5.0584336220e-02
  3         7.8701454297e-16
  4        -2.8146493799e-26
  5         2.0267534650e+00
  6        -2.6861799625e+00
  7        -5.0584336220e-02
  8        -7.1557438653e-16
  9        -2.3607850736e-27
 10         2.0267534650e+00
