[Molden Format]
[Atoms] (AU)
O    1    8           0.0000000000         0.0000000000         0.2225908403
H    2    1           0.0000000000         1.4275992707        -0.8903652510
H    3    1           0.0000000000        -1.4275992707        -0.8903652510
[GTO]
  1 0
 s    8  1.00
    11720.0000000000         0.0007100000
     1759.0000000000         0.0054700000
      400.8000000000         0.0278370000
      113.7000000000         0.1048000000
       37.0300000000         0.2830620000
       13.2700000000         0.4487190000
        5.0250000000         0.2709520000
        1.0130000000         0.0154580000
 s    8  1.00
    11720.0000000000        -0.0001600000
     1759.0000000000        -0.0012630000
      400.8000000000        -0.0062670000
      113.7000000000        -0.0257160000
       37.0300000000        -0.0709240000
       13.2700000000        -0.1654110000
        5.0250000000        -0.1169550000
        1.0130000000         0.5573680000
 s    1  1.00
        0.3023000000         1.0000000000
 p    3  1.00
       17.7000000000         0.0430180000
        3.8540000000         0.2289130000
        1.0460000000         0.5087280000
 p    1  1.00
        0.2753000000         1.0000000000
 d    1  1.00
        1.1850000000         1.0000000000

  2 0
 s    3  1.00
       13.0100000000         0.0196850000
        1.9620000000         0.1379770000
        0.4446000000         0.4781480000
 s    1  1.00
        0.1220000000         1.0000000000
 p    1  1.00
        0.7270000000         1.0000000000

  3 0
 s    3  1.00
       13.0100000000         0.0196850000
        1.9620000000         0.1379770000
        0.4446000000         0.4781480000
 s    1  1.00
        0.1220000000         1.0000000000
 p    1  1.00
        0.7270000000         1.0000000000

[5D7F]
[9G]

[MO]
 Sym= A
 Ene=        -2.0453725708e+01
 Spin= Alpha
 Occup=         1.0000000000e+00
  1         1.0008682985e+00
  2         1.0820133020e-03
  3        -2.9009711728e-03
  4        -2.4858865101e-16
  5         4.6795851604e-16
  6        -1.2860745247e-03
  7         4.6881863088e-16
  8        -7.5882187972e-16
  9         4.3508333977e-04
 10         1.2993937200e-04
 11         8.6210387204e-17
 12         1.2542262214e-15
 13        -3.5017797048e-05
 14         6.8899427366e-16
 15        -1.1080212240e-04
 16         4.3756769371e-04
 17        -2.4743106640e-16
 18         4.3452192556e-04
 19        -3.5721638621e-04
 20        -1.1080212240e-04
 21         4.3756769371e-04
 22         2.0061602047e-16
 23        -4.3452192556e-04
 24        -3.5721638621e-04
 Sym= A
 Ene=        -1.2711240293e+00
 Spin= Alpha
 Occup=         1.0000000000e+00
  1         3.6273361103e-03
  2        -4.5595437007e-01
  3        -3.7394525423e-01
  4         1.7148366721e-16
  5        -2.6260747730e-16
  6         9.8735907784e-02
  7        -8.8018451655e-17
  8        -1.4872037949e-15
  9        -1.8140667329e-02
 10        -3.0396484889e-03
 11         3.6714133944e-17
 12         1.4019616599e-17
 13         1.3554784509e-03
 14         6.8304577155e-18
 15        -1.8175293837e-01
 16        -1.2286755617e-02
 17         1.1884430067e-16
 18         3.5112449763e-02
 19        -2.0539879518e-02
 20        -1.8175293837e-01
 21        -1.2286755617e-02
 22         4.0263680084e-16
 23        -3.5112449763e-02
 24        -2.0539879518e-02
 Sym= A
 Ene=        -6.0623684877e-01
 Spin= Alpha
 Occup=         1.0000000000e+00
  1        -2.0599453789e-16
  2        -6.4565465767e-16
  3        -2.5266982812e-15
  4        -2.8834597243e-16
  5         4.6913850247e-01
  6         4.7305681713e-15
  7        -1.3330608630e-16
  8         2.1371149147e-01
  9         4.5162693664e-15
 10        -6.1664021792e-16
 11         8.8269249150e-17
 12        -2.3602128023e-02
 13         5.0260523054e-17
 14         7.8324253236e-17
 15         3.0946188099e-01
 16         1.7197090178e-01
 17        -1.8114628442e-16
 18        -1.8519379159e-02
 19         3.1361678992e-02
 20        -3.0946188099e-01
 21        -1.7197090178e-01
 22         2.4636427182e-16
 23        -1.8519379159e-02
 24        -3.1361678992e-02
 Sym= A
 Ene=        -5.0354847437e-01
 Spin= Alpha
 Occup=         1.0000000000e+00
  1         1.2991381880e-02
  2        -1.2094869905e-01
  3        -3.5712850316e-01
  4        -1.3293255429e-15
  5         2.6309098575e-15
  6        -5.4729744731e-01
  7        -6.4825810962e-16
  8         7.2852549773e-16
  9        -3.8815648436e-01
 10         1.4279786770e-02
 11        -6.6381342745e-17
 12        -2.2148021444e-16
 13        -4.4115454364e-03
 14         9.6793615568e-18
 15         1.8628163875e-01
 16         3.9192319802e-02
 17        -1.6788228245e-16
 18        -2.5861071154e-02
 19        -3.7930153923e-03
 20         1.8628163875e-01
 21         3.9192319802e-02
 22        -4.2213141379e-16
 23         2.5861071154e-02
 24        -3.7930153923e-03
 Sym= A
 Ene=        -4.1581436502e-01
 Spin= Alpha
 Occup=         1.0000000000e+00
  1         1.4681229998e-16
  2         9.7250472551e-17
  3        -1.8185284399e-15
  4         6.1726835590e-01
  5         2.5170393082e-16
  6        -8.3421660086e-16
  7         5.1462302791e-01
  8         2.6244703581e-16
  9        -3.3328476463e-16
 10        -4.8959516603e-17
 11        -1.5121813903e-02
 12        -3.9106513894e-17
 13        -2.9634196010e-19
 14         2.0592804529e-16
 15         6.8158857335e-16
 16         3.4047935537e-16
 17         2.6150984360e-02
 18        -9.0986462493e-17
 19         8.7676512829e-17
 20         7.9427459737e-16
 21         7.7583776332e-16
 22         2.6150984360e-02
 23         1.7668928401e-16
 24         6.2972477168e-17
 Sym= A
 Ene=        -5.6618494908e-02
 Spin= Alpha
 Occup=         1.0000000000e+00
  1         4.5498115444e-02
  2        -8.6963459421e-02
  3        -9.7426464525e-01
  4        -5.1928352313e-16
  5        -7.9909775241e-16
  6         1.9794022994e-01
  7        -4.5558412914e-16
  8         3.8778759196e-16
  9         3.1702062563e-01
 10        -8.5410751790e-03
 11         3.2205313330e-17
 12         2.2257563527e-16
 13         7.2351677353e-03
 14        -1.3591413138e-17
 15         7.3879189689e-02
 16         8.1364091347e-01
 17         1.1943100873e-16
 18        -1.2029278150e-02
 19         1.2926190140e-02
 20         7.3879189689e-02
 21         8.1364091347e-01
 22         7.2462368295e-16
 23         1.2029278150e-02
 24         1.2926190140e-02
 Sym= A
 Ene=         2.4800715386e-01
 Spin= Alpha
 Occup=         0.0000000000e+00
  1         2.1427545147e-15
  2         6.7425299676e-15
  3        -5.7599770052e-15
  4        -1.8680854095e-16
  5         2.9639797386e-01
  6        -2.3045233972e-15
  7        -3.3774309942e-16
  8         6.8068540058e-01
  9         4.6480659108e-15
 10        -1.6366316571e-16
 11        -1.4563693200e-19
 12        -2.6484922734e-02
 13         5.9531490130e-16
 14         9.9331761626e-18
 15         2.0725385065e-02
 16        -1.4635672142e+00
 17         9.7017324107e-17
 18         2.0935820095e-02
 19        -2.1443775445e-02
 20        -2.0725385065e-02
 21         1.4635672142e+00
 22         5.5758916729e-16
 23         2.0935820095e-02
 24         2.1443775445e-02
 Sym= A
 Ene=         8.6441858886e-01
 Spin= Alpha
 Occup=         0.0000000000e+00
  1         1.7816445961e-15
  2         7.7281169437e-15
  3         9.4879458443e-15
  4        -1.7373480499e-15
  5         2.4705172653e-01
  6        -1.7025181711e-15
  7         1.7872467773e-15
  8         5.2723657461e-01
  9        -2.3587964971e-14
 10        -3.5726681493e-16
 11        -1.0967553812e-16
 12         1.0998057923e-01
 13         1.0584323500e-15
 14         3.6253352118e-17
 15        -9.5867867232e-01
 16         6.2243405264e-01
 17        -9.3136486641e-16
 18        -7.6136078145e-02
 19         1.4300625922e-01
 20         9.5867867232e-01
 21        -6.2243405264e-01
 22         2.2463917750e-16
 23        -7.6136078145e-02
 24        -1.4300625922e-01
 Sym= A
 Ene=         9.1048235155e-01
 Spin= Alpha
 Occup=         0.0000000000e+00
  1         8.2257728323e-02
  2         2.7771506457e-01
  3        -4.4892101419e-01
  4        -6.5451327429e-16
  5        -1.0273833243e-14
  6        -3.5743863650e-01
  7         1.3330043729e-15
  8        -1.1638802578e-15
  9         1.0978682746e-01
 10        -3.3261107703e-03
 11         2.9685690653e-17
 12        -3.3512788458e-15
 13         1.0616089710e-01
 14        -4.0618090989e-17
 15        -7.4424052666e-01
 16         5.7999759642e-01
 17        -6.0051329203e-16
 18        -3.0458357398e-01
 19         7.4959316551e-02
 20        -7.4424052666e-01
 21         5.7999759642e-01
 22        -1.0885127698e-15
 23         3.0458357398e-01
 24         7.4959316551e-02
 Sym= A
 Ene=         1.2144744400e+00
 Spin= Alpha
 Occup=         0.0000000000e+00
  1         2.0300593068e-02
  2         1.7166683392e-01
  3         7.0544463258e-01
  4        -8.0283438722e-15
  5        -2.8374775881e-14
  6         7.4553094742e-01
  7         8.1412255092e-15
  8         7.0841550915e-14
  9        -1.3246412907e+00
 10         5.1157652664e-03
 11        -2.4560229326e-16
 12        -6.5502793403e-15
 13         1.0774070634e-02
 14         4.2277461113e-16
 15        -6.1308967154e-01
 16        -7.4511526580e-02
 17         6.3553587997e-16
 18         8.7818648883e-02
 19        -2.0974007720e-01
 20        -6.1308967154e-01
 21        -7.4511526580e-02
 22        -1.7310412703e-16
 23        -8.7818648883e-02
 24        -2.0974007720e-01
 Sym= A
 Ene=         1.2534613591e+00
 Spin= Alpha
 Occup=         0.0000000000e+00
  1        -2.1817588073e-16
  2         5.6602406452e-16
  3         7.0484005441e-15
  4         9.7617692564e-01
  5        -2.5529275130e-15
  6         6.1398142040e-15
  7        -1.0329753670e+00
  8         6.9945347710e-15
  9        -1.0970985346e-14
 10         4.4923198886e-17
 11        -8.0859718201e-03
 12         2.0670326874e-16
 13        -7.6479328899e-17
 14        -3.9518469962e-16
 15        -9.3978958913e-15
 16        -1.3954110822e-15
 17         1.1038815794e-02
 18         1.2932634860e-15
 19        -2.2442912288e-15
 20        -3.0988694289e-15
 21         1.1855859430e-15
 22         1.1038815794e-02
 23         5.6697711018e-16
 24        -2.0351362486e-15
 Sym= A
 Ene=         1.3078759922e+00
 Spin= Alpha
 Occup=         0.0000000000e+00
  1         6.4473500428e-15
  2         1.9085990255e-14
  3        -6.3616213088e-15
  4         3.8878417106e-15
  5         7.4680469477e-01
  6         3.3700941897e-14
  7        -3.9013362640e-15
  8        -1.7587150324e+00
  9        -4.6438736785e-14
 10        -3.9734326949e-17
 11         1.7171502422e-16
 12         5.1406480660e-02
 13         2.4988127036e-15
 14         2.7026770572e-16
 15         3.6941954563e-01
 16         8.3563786433e-01
 17        -1.4991785668e-16
 18        -3.0051346428e-01
 19         2.0392261734e-01
 20        -3.6941954563e-01
 21        -8.3563786433e-01
 22         2.9571795199e-17
 23        -3.0051346428e-01
 24        -2.0392261734e-01
 Sym= A
 Ene=         1.5151059696e+00
 Spin= Alpha
 Occup=         0.0000000000e+00
  1         2.1301910447e-01
  2         5.4610320027e-01
  3        -5.9858838006e-01
  4         7.1655489306e-16
  5        -5.6466644595e-15
  6         9.5099709483e-02
  7        -1.9871156904e-15
  8        -2.1034563944e-15
  9        -6.2734559159e-01
 10        -1.1448920991e-01
 11        -4.3727682150e-16
 12        -1.1722380881e-15
 13        -7.5451994025e-03
 14        -1.4818659609e-15
 15        -2.7970533317e-01
 16         2.1939262884e-01
 17        -7.3417125440e-15
 18         3.2298298779e-01
 19         5.5786469987e-01
 20        -2.7970533317e-01
 21         2.1939262884e-01
 22         1.0158530679e-14
 23        -3.2298298779e-01
 24         5.5786469987e-01
 Sym= A
 Ene=         1.5677645784e+00
 Spin= Alpha
 Occup=         0.0000000000e+00
  1        -1.6898842278e-15
  2        -3.3495657045e-15
  3         9.2568251549e-15
  4         5.0989439268e-15
  5        -3.1662496560e-16
  6         5.9674754025e-16
  7        -4.5273347372e-15
  8         1.4559958291e-15
  9        -1.2760955299e-14
 10        -1.7545898044e-15
 11        -1.6622943600e-15
 12         4.4793334583e-16
 13         3.5528366343e-16
 14         1.3060557844e-01
 15        -8.5810167464e-15
 16         5.9764847595e-16
 17         6.8617919868e-01
 18         5.0034010539e-15
 19         7.5438244859e-15
 20        -7.4723038274e-15
 21         1.2959858700e-15
 22        -6.8617919868e-01
 23        -7.2559512134e-15
 24         7.9155768331e-15
 Sym= A
 Ene=         1.7564610068e+00
 Spin= Alpha
 Occup=         0.0000000000e+00
  1        -9.6348651693e-16
  2        -2.3868976420e-15
  3         5.8790674344e-15
  4         3.9267938662e-02
  5        -5.7203858814e-16
  6         6.5165906607e-16
  7         6.0378308194e-01
  8         1.6259229716e-16
  9        -4.4067188691e-15
 10         4.9591227257e-16
 11         1.6088489392e-01
 12        -8.7092631474e-17
 13        -2.1611690289e-16
 14        -9.7606747232e-16
 15        -1.1287594891e-15
 16        -2.6562844242e-15
 17        -7.6656280127e-01
 18         2.5655865571e-15
 19         1.2808312357e-15
 20        -2.7144505478e-15
 21         7.4778059034e-16
 22        -7.6656280127e-01
 23        -2.0760680439e-15
 24         7.7036229402e-16
 Sym= A
 Ene=         1.9297955832e+00
 Spin= Alpha
 Occup=         0.0000000000e+00
  1         7.2294985428e-01
  2         1.5864443079e+00
  3        -3.0151017412e+00
  4         4.5868344109e-16
  5        -1.6702895121e-14
  6         1.1219398474e-01
  7         4.3972444065e-16
  8         1.0368249312e-14
  9         9.8402004210e-01
 10         1.1721378283e-01
 11         5.1872935620e-17
 12         5.1379423440e-15
 13        -1.0594747110e-01
 14         1.9722912375e-15
 15         8.4449557112e-01
 16         3.7521942995e-01
 17         2.9632992506e-15
 18        -3.6374302514e-01
 19        -3.5548770323e-02
 20         8.4449557112e-01
 21         3.7521942995e-01
 22        -5.0448847271e-15
 23         3.6374302514e-01
 24        -3.5548770323e-02
 Sym= A
 Ene=         2.0256432115e+00
 Spin= Alpha
 Occup=         0.0000000000e+00
  1         6.8820066032e-15
  2         1.7180166467e-14
  3         1.0703911530e-14
  4         5.8589126561e-16
  5         4.1701879252e-03
  6        -1.4455981607e-14
  7        -2.0045638479e-16
  8         8.6766266646e-01
  9        -2.7941940663e-15
 10        -6.8106981758e-16
 11         3.1608081217e-16
 12         2.7894487612e-02
 13        -1.2206750275e-15
 14        -2.5039465097e-16
 15        -3.7137944876e-01
 16        -8.5087449251e-02
 17        -1.1327850345e-15
 18        -4.7201049440e-01
 19        -6.9592288865e-01
 20         3.7137944876e-01
 21         8.5087449251e-02
 22         3.0100776308e-16
 23        -4.7201049440e-01
 24         6.9592288865e-01
 Sym= A
 Ene=         2.5422769029e+00
 Spin= Alpha
 Occup=         0.0000000000e+00
  1         4.7010753538e-14
  2         1.2063032058e-13
  3         9.1222571310e-14
  4         2.5111834233e-16
  5         8.3687860291e-01
  6        -1.0115057467e-13
  7        -5.0773556416e-16
  8         1.4105507384e-01
  9        -1.4641154066e-14
 10        -7.8833188680e-15
 11         1.3492414490e-15
 12         1.4406645692e-01
 13         2.6783254041e-14
 14         5.1985235005e-16
 15        -2.9420333074e-01
 16        -3.2688179216e-01
 17         5.6517145555e-16
 18         7.2405016840e-01
 19        -5.4738532561e-01
 20         2.9420333074e-01
 21         3.2688179216e-01
 22         2.0175129416e-16
 23         7.2405016840e-01
 24         5.4738532561e-01
 Sym= A
 Ene=         2.5729514344e+00
 Spin= Alpha
 Occup=         0.0000000000e+00
  1         2.6966466506e-01
  2         7.0649554027e-01
  3         8.2123970253e-01
  4         3.0471843848e-16
  5        -1.1694381113e-13
  6        -6.6466739872e-01
  7        -7.2357378392e-16
  8        -4.4865487873e-14
  9        -1.8757847357e-01
 10        -5.4083435150e-02
 11         1.1285963453e-15
 12        -3.1139252218e-14
 13         2.2013360980e-01
 14         1.0148853237e-16
 15        -4.8630024883e-01
 16        -1.6248519718e-01
 17         8.0043472703e-16
 18         7.4549752390e-01
 19        -5.4061634104e-01
 20        -4.8630024883e-01
 21        -1.6248519718e-01
 22         5.5261396563e-17
 23        -7.4549752390e-01
 24        -5.4061634104e-01
 Sym= A
 Ene=         3.3645964773e+00
 Spin= Alpha
 Occup=         0.0000000000e+00
  1         5.9692431026e-16
  2         1.2388785637e-15
  3        -5.6982592366e-15
  4         1.0894680806e-02
  5        -1.5999478277e-15
  6         1.7210168844e-15
  7        -3.1322059237e-01
  8        -6.4216926382e-16
  9         4.0795489755e-15
 10        -8.3188952086e-15
 11         1.0431232177e+00
 12         4.4546571991e-16
 13        -1.9977435299e-15
 14         5.8098573281e-15
 15         2.8932651366e-15
 16         1.5528911575e-15
 17         3.9889961334e-01
 18        -5.0827593352e-15
 19        -4.6970713065e-16
 20         1.8346538086e-15
 21        -8.6724920866e-19
 22         3.9889961334e-01
 23         2.4883025975e-15
 24        -3.2676922031e-15
 Sym= A
 Ene=         3.4197479903e+00
 Spin= Alpha
 Occup=         0.0000000000e+00
  1        -8.4271927305e-16
  2        -2.2146157777e-15
  3        -9.9280326417e-16
  4        -7.3825926679e-16
  5        -1.1733132844e-15
  6         1.2148447869e-16
  7         2.9398770570e-15
  8         2.5645970368e-16
  9         1.0442298344e-15
 10         1.4841200524e-15
 11        -5.0746071800e-15
 12         1.0152038804e-15
 13         3.5336672226e-15
 14         1.0657569160e+00
 15         3.3373385458e-15
 16        -9.8087565280e-16
 17        -3.7013447120e-01
 18        -1.4401333318e-15
 19         2.2910184791e-15
 20         8.2358768160e-16
 21         6.1825159577e-16
 22         3.7013447120e-01
 23        -7.1833525340e-17
 24         1.4990819164e-15
 Sym= A
 Ene=         3.5895257005e+00
 Spin= Alpha
 Occup=         0.0000000000e+00
  1         8.5783190427e-02
  2         1.5900812057e-01
  3        -5.5678951237e-01
  4        -2.8651921164e-16
  5        -5.8283472990e-15
  6         1.9321822567e-02
  7         3.6072597727e-15
  8        -6.2025552367e-15
  9         5.3762643251e-01
 10        -1.0839076915e+00
 11        -8.4364590312e-15
 12         8.5792782468e-15
 13        -1.8392268592e-01
 14         2.1572613213e-15
 15         3.0691806895e-01
 16         3.5978600985e-02
 17        -4.8821076920e-15
 18        -3.5089627366e-01
 19        -3.1429249706e-01
 20         3.0691806895e-01
 21         3.5978600985e-02
 22        -3.6211565789e-15
 23         3.5089627366e-01
 24        -3.1429249706e-01
 Sym= A
 Ene=         3.9437949912e+00
 Spin= Alpha
 Occup=         0.0000000000e+00
  1         1.4282246501e-01
  2         1.7622488231e-01
  3        -2.2652928774e+00
  4         5.3223745065e-16
  5        -3.9739007688e-14
  6         4.0626308956e-01
  7        -5.2997256929e-16
  8        -7.6470712957e-14
  9         9.2502575445e-01
 10        -1.4522646885e-01
 11         4.1599386204e-16
 12         1.1293591176e-13
 13         1.1565718582e+00
 14        -3.1768413597e-15
 15         1.2389503797e+00
 16         1.9061388533e-01
 17         9.9371491024e-16
 18        -6.1921268295e-01
 19         4.9356542938e-01
 20         1.2389503797e+00
 21         1.9061388533e-01
 22        -1.3783462679e-15
 23         6.1921268295e-01
 24         4.9356542938e-01
 Sym= A
 Ene=         4.2287404843e+00
 Spin= Alpha
 Occup=         0.0000000000e+00
  1         1.7189133572e-14
  2         2.4172595329e-14
  3        -2.4541079083e-13
  4         3.0237519324e-16
  5         4.7433868678e-01
  6         4.0866921157e-14
  7        -8.6844420531e-16
  8         1.1339337457e+00
  9         1.0233383822e-13
 10        -1.9250680102e-14
 11         6.2687991235e-16
 12        -1.3254753415e+00
 13         9.8455546555e-14
 14         1.2875028813e-15
 15        -1.0842731416e+00
 16        -2.8653911799e-01
 17         2.7080608921e-16
 18         6.0674939778e-01
 19        -4.9762922626e-01
 20         1.0842731416e+00
 21         2.8653911799e-01
 22         7.4790363002e-16
 23         6.0674939778e-01
 24         4.9762922626e-01
 Sym= A
 Ene=        -2.0441354989e+01
 Spin= Beta
 Occup=         1.0000000000e+00
  1         1.0008932778e+00
  2         1.1457382118e-03
  3        -2.9223763750e-03
  4        -2.5208671720e-16
  5         3.8954619956e-16
  6        -1.1424576627e-03
  7         4.8433877379e-16
  8        -8.4578798758e-16
  9         4.1045751620e-04
 10        -4.1923625017e-05
 11         8.0071635056e-17
 12         1.3527057512e-15
 13        -1.1267362129e-04
 14         6.8176064412e-16
 15        -1.1590976110e-04
 16         4.4552835518e-04
 17        -2.4971952323e-16
 18         4.4122012172e-04
 19        -4.0470187599e-04
 20        -1.1590976110e-04
 21         4.4552835518e-04
 22         1.2563835884e-16
 23        -4.4122012172e-04
 24        -4.0470187599e-04
 Sym= A
 Ene=        -1.2307093444e+00
 Spin= Beta
 Occup=         1.0000000000e+00
  1         1.1946427579e-02
  2        -4.3717640661e-01
  3        -3.9094129154e-01
  4         1.3770326159e-16
  5        -1.1404654569e-15
  6         5.3703145223e-02
  7        -8.7052248043e-17
  8         1.8487112244e-16
  9        -2.7358714578e-02
 10         1.6452676334e-03
 11        -1.2957120316e-18
 12        -1.8405959980e-16
 13         3.4785025846e-03
 14        -7.6603608642e-18
 15        -1.8634579892e-01
 16        -1.4685606957e-02
 17         7.8717598102e-17
 18         3.5843134804e-02
 19        -2.1269866614e-02
 20        -1.8634579892e-01
 21        -1.4685606957e-02
 22         2.0304977133e-16
 23        -3.5843134804e-02
 24        -2.1269866614e-02
 Sym= A
 Ene=        -6.0187801227e-01
 Spin= Beta
 Occup=         1.0000000000e+00
  1        -5.8939508302e-16
  2        -3.9718937880e-15
  3        -3.5716135257e-15
  4        -8.1196541034e-17
  5         4.8845817329e-01
  6        -4.6694069788e-15
  7         3.9246434824e-17
  8         2.3816804406e-01
  9        -2.5846300625e-15
 10         6.5723362314e-17
 11        -3.4588711326e-17
 12        -2.1336432130e-02
 13        -2.0199264156e-16
 14         2.0181156335e-16
 15         3.1096747591e-01
 16         1.0113341203e-01
 17        -8.7269116970e-17
 18        -2.3747951063e-02
 19         3.4995501705e-02
 20        -3.1096747591e-01
 21        -1.0113341203e-01
 22         3.1107442590e-16
 23        -2.3747951063e-02
 24        -3.4995501705e-02
 Sym= A
 Ene=        -4.8119994090e-01
 Spin= Beta
 Occup=         1.0000000000e+00
  1         3.1926967353e-03
  2        -1.3016784511e-01
  3        -3.3467720406e-01
  4        -1.6783088389e-15
  5        -3.6153102555e-15
  6        -5.3676230302e-01
  7        -9.1911397210e-16
  8        -1.0132138926e-15
  9        -3.8347499118e-01
 10         1.1906427211e-02
 11        -9.0983948073e-17
 12        -1.1206288075e-16
 13        -4.5698411837e-03
 14         8.6452979328e-17
 15         2.0896302807e-01
 16         4.0003097853e-02
 17        -1.6992215397e-16
 18        -3.0085772695e-02
 19        -1.2214556447e-03
 20         2.0896302807e-01
 21         4.0003097853e-02
 22        -3.2600280142e-16
 23         3.0085772695e-02
 24        -1.2214556447e-03
 Sym= A
 Ene=        -4.0223204561e-01
 Spin= Beta
 Occup=         1.0000000000e+00
  1        -5.4969884155e-18
  2        -4.3154669180e-16
  3        -1.0146438091e-15
  4         6.1393801056e-01
  5         1.7021789657e-16
  6        -1.1987906400e-15
  7         5.1853252755e-01
  8        -2.6851593562e-16
  9        -8.5407008853e-16
 10        -1.5024849422e-17
 11        -1.1281515906e-02
 12        -5.0404089768e-17
 13        -3.7530895376e-17
 14         1.3246602412e-16
 15         4.4339416256e-16
 16         4.3088770833e-16
 17         2.5768879861e-02
 18         2.1639661242e-17
 19         4.5243951702e-17
 20         5.3836364362e-16
 21         4.6363003039e-16
 22         2.5768879861e-02
 23         7.6844927421e-17
 24         3.7042771836e-17
 Sym= A
 Ene=         2.5205386380e-01
 Spin= Beta
 Occup=         0.0000000000e+00
  1         5.8181414952e-02
  2        -6.1759380319e-02
  3        -1.0529743189e+00
  4        -3.9267173885e-16
  5         1.2265136187e-16
  6         1.6457099705e-01
  7        -2.3772274712e-16
  8         4.4394175984e-15
  9         3.6791188772e-01
 10        -5.5994895117e-03
 11        -2.3241981521e-17
 12        -5.4396483468e-16
 13         1.4986970153e-02
 14        -5.0881965456e-17
 15         4.1133671718e-02
 16         8.5528780831e-01
 17         2.9438086011e-16
 18        -3.4281340980e-02
 19         2.5719723554e-02
 20         4.1133671718e-02
 21         8.5528780831e-01
 22         1.5728470713e-17
 23         3.4281340980e-02
 24         2.5719723554e-02
 Sym= A
 Ene=         3.1781334956e-01
 Spin= Beta
 Occup=         0.0000000000e+00
  1         2.5509002530e-15
  2         8.9469821511e-15
  3        -5.0595132014e-15
  4         6.1083018226e-17
  5         2.7032046214e-01
  6        -2.0081939959e-15
  7        -1.4694779719e-16
  8         6.8265964236e-01
  9         4.6689647352e-15
 10        -1.8163006561e-16
 11        -8.9451689131e-18
 12        -2.3458868413e-02
 13         7.0044990964e-16
 14         8.0475369552e-18
 15        -1.4328231119e-03
 16        -1.4807809803e+00
 17         7.5328367726e-17
 18         3.1338109500e-02
 19        -2.8675487704e-02
 20         1.4328231119e-03
 21         1.4807809803e+00
 22        -1.3770182580e-16
 23         3.1338109500e-02
 24         2.8675487704e-02
 Sym= A
 Ene=         8.7507035057e-01
 Spin= Beta
 Occup=         0.0000000000e+00
  1        -4.6802199627e-16
  2        -1.4553549113e-15
  3         1.4271284782e-14
  4        -1.3644240460e-15
  5         2.5181145105e-01
  6         6.4038025663e-15
  7         1.7829545158e-15
  8         5.2613657995e-01
  9        -2.0158050502e-14
 10        -3.1061377674e-16
 11         1.1812585040e-16
 12         1.1240508145e-01
 13        -1.1457898691e-15
 14         2.8006447397e-16
 15        -9.6236253747e-01
 16         6.1992161733e-01
 17        -5.2106413220e-17
 18        -7.0997108567e-02
 19         1.3761562692e-01
 20         9.6236253747e-01
 21        -6.1992161733e-01
 22        -1.1866929132e-15
 23        -7.0997108567e-02
 24        -1.3761562692e-01
 Sym= A
 Ene=         9.5974354271e-01
 Spin= Beta
 Occup=         0.0000000000e+00
  1         6.3112033766e-02
  2         2.5894326010e-01
  3        -2.8583257340e-01
  4        -1.1043884587e-15
  5        -8.1386656346e-15
  6        -3.4004309710e-01
  7         1.4982011978e-15
  8         1.8236766650e-14
  9         2.8513514729e-03
 10        -6.2478537179e-03
 11         2.8395209168e-18
 12        -3.6851596095e-16
 13         1.0784885049e-01
 14         3.6906136404e-17
 15        -7.8227496082e-01
 16         5.1357955313e-01
 17        -4.8373656662e-16
 18        -2.9930845208e-01
 19         5.9052476560e-02
 20        -7.8227496082e-01
 21         5.1357955313e-01
 22        -4.7181702551e-16
 23         2.9930845208e-01
 24         5.9052476560e-02
 Sym= A
 Ene=         1.2391459363e+00
 Spin= Beta
 Occup=         0.0000000000e+00
  1         2.8649552202e-02
  2         1.7692451241e-01
  3         6.6520480784e-01
  4        -8.2877152782e-15
  5        -3.4498513078e-14
  6         7.6705875757e-01
  7         9.2231723739e-15
  8         8.5211292146e-14
  9        -1.3195213634e+00
 10         1.0918039958e-02
 11         1.0156022165e-16
 12        -5.9890766049e-15
 13         6.4854728386e-03
 14         1.4693572708e-16
 15        -5.7269305383e-01
 16        -7.5553541937e-02
 17         3.1694348322e-16
 18         1.0969794229e-01
 19        -2.0885023874e-01
 20        -5.7269305383e-01
 21        -7.5553541937e-02
 22        -1.8967057781e-15
 23        -1.0969794229e-01
 24        -2.0885023874e-01
 Sym= A
 Ene=         1.2780399381e+00
 Spin= Beta
 Occup=         0.0000000000e+00
  1         3.4915021989e-16
  2         1.8310066909e-15
  3         5.0982105373e-15
  4         9.7834371819e-01
  5        -3.4387643266e-15
  6         6.5130341542e-15
  7        -1.0339595426e+00
  8         8.5962779889e-15
  9        -1.0932581821e-14
 10         1.1106936590e-16
 11        -1.1280734986e-03
 12         1.0719196816e-16
 13        -1.2176870595e-16
 14        -5.8621961636e-16
 15        -9.2135504974e-15
 16        -1.8557007549e-15
 17         1.4719315146e-02
 18         1.5386826806e-15
 19        -2.5252860857e-15
 20        -2.7324102421e-15
 21         2.3424585758e-15
 22         1.4719315146e-02
 23         1.0563054897e-15
 24        -1.7657135728e-15
 Sym= A
 Ene=         1.3252706445e+00
 Spin= Beta
 Occup=         0.0000000000e+00
  1         1.3926545166e-15
  2         8.2860896920e-15
  3         2.2760096616e-14
  4         4.8829718972e-15
  5         7.4984360090e-01
  6         3.7293120703e-14
  7        -4.7647003916e-15
  8        -1.7599907248e+00
  9        -6.1245718320e-14
 10         7.0543145921e-16
 11        -6.6462468484e-17
 12         5.4181424591e-02
 13         2.7443407081e-15
 14         1.9949453229e-16
 15         3.6936608300e-01
 16         8.2021690051e-01
 17        -6.8231421931e-16
 18        -2.9415232219e-01
 19         2.0392627258e-01
 20        -3.6936608300e-01
 21        -8.2021690051e-01
 22        -1.9060922690e-17
 23        -2.9415232219e-01
 24        -2.0392627258e-01
 Sym= A
 Ene=         1.5273450819e+00
 Spin= Beta