[Molden Format]
[Atoms] (AU)
O    1    8           0.0000000000         0.0000000000         0.2225908403
H    2    1           0.0000000000         1.4275992707        -0.8903652510
H    3    1           0.0000000000        -1.4275992707        -0.8903652510
[GTO]
  1 0
 s    8  1.00
    11720.0000000000         0.0007100000
     1759.0000000000         0.0054700000
      400.8000000000         0.0278370000
      113.7000000000         0.1048000000
       37.0300000000         0.2830620000
       13.2700000000         0.4487190000
        5.0250000000         0.2709520000
        1.0130000000         0.0154580000
 s    8  1.00
    11720.0000000000        -0.0001600000
     1759.0000000000        -0.0012630000
      400.8000000000        -0.0062670000
      113.7000000000        -0.0257160000
       37.0300000000        -0.0709240000
       13.2700000000        -0.1654110000
        5.0250000000        -0.1169550000
        1.0130000000         0.5573680000
 s    1  1.00
        0.3023000000         1.0000000000
 p    3  1.00
       17.7000000000         0.0430180000
        3.8540000000         0.2289130000
        1.0460000000         0.5087280000
 p    1  1.00
        0.2753000000         1.0000000000
 d    1  1.00
        1.1850000000         1.0000000000

  2 0
 s    3  1.00
       13.0100000000         0.0196850000
        1.9620000000         0.1379770000
        0.4446000000         0.4781480000
 s    1  1.00
        0.1220000000         1.0000000000
 p    1  1.00
        0.7270000000         1.0000000000

  3 0
 s    3  1.00
       13.0100000000         0.0196850000
        1.9620000000         0.1379770000
        0.4446000000         0.4781480000
 s    1  1.00
        0.1220000000         1.0000000000
 p    1  1.00
        0.7270000000         1.0000000000

[5D7F]
[9G]

[MO]
 Sym= A
 Ene=        -2.0550757888e+01
 Spin= Alpha
 Occup=         2.0000000000e+00
  1         1.0008980774e+00
  2         1.1701561055e-03
  3        -2.6688603869e-03
  4        -2.4883660732e-16
  5         4.0314682550e-16
  6        -1.7650731012e-03
  7         4.9191940261e-16
  8        -8.3102461469e-16
  9         4.8633946503e-04
 10         1.2966651369e-05
 11         7.5664357065e-17
 12         1.3643767013e-15
 13        -1.3538396941e-04
 14         6.8162028754e-16
 15        -2.3708149394e-04
 16         4.2064228598e-04
 17        -2.5205697155e-16
 18         5.6860152317e-04
 19        -4.8268600132e-04
 20        -2.3708149394e-04
 21         4.2064228598e-04
 22         8.9249193122e-17
 23        -5.6860152316e-04
 24        -4.8268600132e-04
 Sym= A
 Ene=        -1.3366733261e+00
 Spin= Alpha
 Occup=         2.0000000000e+00
  1         8.1569059047e-03
  2        -4.4292593111e-01
  3        -3.7585829811e-01
  4         1.7728908192e-16
  5        -8.8544638430e-16
  6         7.9039004490e-02
  7        -1.2612293750e-16
  8         3.5340253704e-15
  9        -1.3118461471e-02
 10        -1.2915285976e-03
 11         2.8150709214e-17
 12        -4.9063452598e-16
 13         2.9797167596e-03
 14         1.6120665865e-17
 15        -1.9353762178e-01
 16        -1.0070119819e-02
 17         1.1970985244e-16
 18         3.7197451846e-02
 19        -2.0622997137e-02
 20        -1.9353762178e-01
 21        -1.0070119819e-02
 22         4.0311593226e-16
 23        -3.7197451846e-02
 24        -2.0622997137e-02
 Sym= A
 Ene=        -6.9819927015e-01
 Spin= Alpha
 Occup=         2.0000000000e+00
  1        -3.0437652206e-16
  2        -2.9208187695e-15
  3        -3.6697425946e-15
  4        -3.3706810713e-16
  5         4.9011403673e-01
  6        -6.5210767911e-16
  7        -9.6201580780e-17
  8         2.2273777058e-01
  9         4.2529803715e-16
 10         5.8457001621e-18
 11         4.4112034267e-18
 12        -2.6846508219e-02
 13         5.8343347877e-16
 14         6.9113516670e-17
 15         3.2762444589e-01
 16         9.0210334615e-02
 17         3.1145586147e-17
 18        -2.3161889956e-02
 19         3.2734889887e-02
 20        -3.2762444589e-01
 21        -9.0210334615e-02
 22         2.3735363723e-16
 23        -2.3161889956e-02
 24        -3.2734889887e-02
 Sym= A
 Ene=        -5.6725926889e-01
 Spin= Alpha
 Occup=         2.0000000000e+00
  1         2.1924934877e-03
  2        -1.5082947503e-01
  3        -3.5073201420e-01
  4        -3.0195506667e-15
  5        -2.4847949195e-15
  6        -5.4493230504e-01
  7        -1.8147109516e-15
  8        -6.2884921969e-15
  9        -3.6433136725e-01
 10         1.7912114282e-02
 11        -6.1268777365e-17
 12         7.1671114313e-16
 13        -4.5799999957e-03
 14         3.3305660854e-17
 15         2.0704477479e-01
 16         4.0435263417e-02
 17        -2.9915624943e-16
 18        -3.1844207113e-02
 19        -7.3825424103e-03
 20         2.0704477479e-01
 21         4.0435263417e-02
 22        -7.5853263922e-16
 23         3.1844207113e-02
 24        -7.3825424103e-03
 Sym= A
 Ene=        -4.9324284185e-01
 Spin= Alpha
 Occup=         2.0000000000e+00
  1         9.4977552691e-17
  2        -4.5262463078e-16
  3        -2.4451769671e-15
  4         6.3124229934e-01
  5         3.5333483003e-16
  6        -2.2728861613e-15
  7         4.9559956448e-01
  8         2.2780572121e-16
  9        -1.3551645136e-15
 10         2.1969344256e-17
 11        -1.8236487698e-02
 12        -1.0157745253e-16
 13         4.0419119282e-18
 14        -1.0684000162e-16
 15         1.3408655178e-15
 16        -8.9578678192e-17
 17         3.1082609709e-02
 18        -1.0786126879e-16
 19         4.8855662227e-17
 20         1.3070232696e-15
 21         9.9710296588e-16
 22         3.1082609709e-02
 23         2.8998968688e-16
 24         2.2951690956e-16
 Sym= A
 Ene=         1.8537974396e-01
 Spin= Alpha
 Occup=         0.0000000000e+00
  1         5.2022476069e-02
  2        -7.2420248304e-02
  3        -1.0012677396e+00
  4        -4.0508746331e-16
  5         6.8635468304e-15
  6         1.9115290230e-01
  7        -2.0869095238e-16
  8         1.9994719045e-14
  9         3.3811635021e-01
 10        -7.6457890471e-03
 11         2.5995675036e-17
 12        -5.8741972823e-16
 13         9.9242856362e-03
 14        -3.9554080220e-18
 15         5.8633084629e-02
 16         8.2871816137e-01
 17         1.7051384673e-16
 18        -1.7448534441e-02
 19         1.6334761718e-02
 20         5.8633084629e-02
 21         8.2871816137e-01
 22         3.5102003611e-16
 23         1.7448534441e-02
 24         1.6334761718e-02
 Sym= A
 Ene=         2.5620450075e-01
 Spin= Alpha
 Occup=         0.0000000000e+00
  1        -7.2576788196e-15
  2        -4.8959251299e-15
  3         7.8680330127e-14
  4        -2.7542518193e-16
  5         2.8353434520e-01
  6        -1.2863067219e-14
  7        -3.8687697128e-16
  8         6.7051596662e-01
  9        -3.9231965294e-14
 10         1.0034192238e-15
 11        -2.9189613799e-17
 12        -2.1187726627e-02
 13        -2.4314978962e-15
 14         3.8323441861e-17
 15        -2.6388182239e-02
 16        -1.4452172483e+00
 17        -1.2159313198e-16
 18         2.0735372465e-02
 19        -1.7095105616e-02
 20         2.6388182239e-02
 21         1.4452172483e+00
 22         7.4203540250e-16
 23         2.0735372465e-02
 24         1.7095105616e-02
 Sym= A
 Ene=         7.8750123281e-01
 Spin= Alpha
 Occup=         0.0000000000e+00
  1         7.0067450309e-15
  2         2.0247355794e-14
  3        -2.0833364062e-14
  4        -9.6417094618e-16
  5         2.6691841610e-01
  6        -8.4203283470e-15
  7         1.0425887508e-15
  8         4.6038621399e-01
  9        -9.8652744430e-15
 10        -1.3133093958e-16
 11        -1.2205604925e-16
 12         1.1165154279e-01
 13         3.1592853498e-15
 14         7.7917828949e-17
 15        -9.4440219269e-01
 16         6.8863596846e-01
 17        -1.9695186859e-16
 18        -7.3840050681e-02
 19         1.5174857461e-01
 20         9.4440219269e-01
 21        -6.8863596846e-01
 22         1.5629553714e-16
 23        -7.3840050681e-02
 24        -1.5174857461e-01
 Sym= A
 Ene=         8.5550453847e-01
 Spin= Alpha
 Occup=         0.0000000000e+00
  1         6.6012124289e-02
  2         2.5722382631e-01
  3        -3.2596994621e-01
  4        -4.4338174588e-16
  5        -3.0638677216e-14
  6        -3.3262638458e-01
  7         1.1205820185e-15
  8         3.4892646842e-14
  9         1.4023959268e-02
 10        -1.7973752465e-03
 11        -2.9254175810e-17
 12        -9.4741798677e-15
 13         1.0681740418e-01
 14         1.2232708413e-16
 15        -7.8537366850e-01
 16         5.4868103108e-01
 17        -2.1946700835e-16
 18        -2.9632077087e-01
 19         6.1473149144e-02
 20        -7.8537366850e-01
 21         5.4868103108e-01
 22        -1.2156350730e-15
 23         2.9632077087e-01
 24         6.1473149144e-02
 Sym= A
 Ene=         1.1638638006e+00
 Spin= Alpha
 Occup=         0.0000000000e+00
  1         4.2551167989e-03
  2         1.1797505728e-01
  3         7.4504396706e-01
  4        -1.1473356119e-14
  5        -5.7110304945e-14
  6         7.5227959344e-01
  7         1.2500877122e-14
  8         1.2360886311e-13
  9        -1.2800475620e+00
 10         1.2989754822e-02
 11        -6.5769150901e-17
 12        -5.7372770783e-15
 13         7.5147570369e-03
 14         3.0724141924e-16
 15        -5.5026885488e-01
 16        -1.1082156071e-01
 17         4.7285974313e-16
 18         8.1535822175e-02
 19        -2.5187699816e-01
 20        -5.5026885488e-01
 21        -1.1082156071e-01
 22        -1.4184902937e-15
 23        -8.1535822175e-02
 24        -2.5187699816e-01
 Sym= A
 Ene=         1.2002762343e+00
 Spin= Alpha
 Occup=         0.0000000000e+00
  1        -1.2733375819e-16
  2         1.0164501790e-15
  3         8.9996642000e-15
  4         9.6779877919e-01
  5        -3.3489674218e-15
  6         8.9820312703e-15
  7        -1.0246500981e+00
  8         8.3264356156e-15
  9        -1.4283847974e-14
 10         2.8443978754e-16
 11        -3.4720464937e-03
 12         1.5411197842e-16
 13        -8.4258200291e-17
 14         6.0786169455e-16
 15        -9.8314250371e-15
 16        -3.2505636847e-15
 17        -8.8351864647e-03
 18         1.5411041884e-15
 19        -4.1264354791e-15
 20        -4.0795726118e-15
 21         1.5244106740e-15
 22        -8.8351864647e-03
 23         9.8861849369e-16
 24        -3.6260269721e-15
 Sym= A
 Ene=         1.2537499942e+00
 Spin= Alpha
 Occup=         0.0000000000e+00
  1         1.5848725679e-14
  2         4.3931306360e-14
  3        -3.6372438145e-14
  4         4.8166475795e-15
  5         7.3562354586e-01
  6         5.3879714941e-14
  7        -4.8794810448e-15
  8        -1.7619888102e+00
  9        -6.4009184760e-14
 10         1.5609009786e-15
 11        -4.2678676026e-17
 12         4.4678526711e-02
 13         8.4863345853e-15
 14         3.4167493784e-16
 15         3.7731110111e-01
 16         8.2582141256e-01
 17        -1.5179809419e-15
 18        -3.0078006566e-01
 19         1.8878328601e-01
 20        -3.7731110111e-01
 21        -8.2582141256e-01
 22         9.8184798029e-16
 23        -3.0078006566e-01
 24        -1.8878328601e-01
 Sym= A
 Ene=         1.4410889649e+00
 Spin= Alpha
 Occup=         0.0000000000e+00
  1         1.9799004646e-01
  2         5.2067626344e-01
  3        -4.8566850727e-01
  4         1.3232913177e-15
  5         1.1143797819e-15
  6         1.3127405591e-01
  7        -4.3830392707e-15
  8        -7.0977085222e-16
  9        -7.4604917759e-01
 10        -1.1721107213e-01
 11        -4.5086878566e-16
 12        -2.6074598415e-15
 13        -5.0894945122e-03
 14        -1.6920405160e-15
 15        -3.3927123344e-01
 16         2.0648307678e-01
 17        -6.7470443245e-15
 18         3.3457186750e-01
 19         5.4233821942e-01
 20        -3.3927123344e-01
 21         2.0648307678e-01
 22         1.3300549182e-14
 23        -3.3457186750e-01
 24         5.4233821942e-01
 Sym= A
 Ene=         1.4773874347e+00
 Spin= Alpha
 Occup=         0.0000000000e+00
  1         1.1130566307e-15
  2         3.1134625128e-15
  3        -1.7160939010e-16
  4        -4.1595389858e-15
  5         3.4013107633e-16
  6         7.2297358102e-16
  7         1.6016973411e-14
  8        -2.7216264660e-15
  9        -1.1248982659e-14
 10        -1.6737588064e-15
 11         2.6140511810e-15
 12         5.5244451691e-16
 13        -6.8425979201e-17
 14         1.3149235277e-01
 15        -4.8473165349e-15
 16         2.1620057123e-15
 17         6.8587097111e-01
 18         4.8663392445e-15
 19         9.0793895650e-15
 20        -7.4041426478e-15
 21         1.8513289392e-15
 22        -6.8587097111e-01
 23        -7.4109398958e-15
 24         7.0593044293e-15
 Sym= A
 Ene=         1.6723533828e+00
 Spin= Alpha
 Occup=         0.0000000000e+00
  1         3.5164491387e-15
  2         7.7030904825e-15
  3        -1.2046969805e-14
  4         1.9045108995e-02
  5        -8.6189704908e-16
  6         2.5322504969e-16
  7         6.3378385477e-01
  8        -6.2762990065e-16
  9         5.1713293159e-16
 10         7.3700508643e-16
 11         1.6076128562e-01
 12         9.0102920367e-17
 13        -7.2472415316e-16
 14        -4.6520530038e-15
 15         3.3380732393e-15
 16         6.0830670898e-16
 17        -7.6643784229e-01
 18         1.5894416341e-15
 19         3.2950281242e-15
 20         7.5385222884e-16
 21         2.8347857895e-15
 22        -7.6643784229e-01
 23        -1.1033674397e-15
 24         9.2782819700e-16
 Sym= A
 Ene=         1.8665716869e+00
 Spin= Alpha
 Occup=         0.0000000000e+00
  1         7.2568531434e-01
  2         1.5959311004e+00
  3        -3.0382915669e+00
  4        -1.7324652330e-16
  5        -2.0559545414e-14
  6         1.1008334060e-01
  7        -2.3790182147e-15
  8        -5.9018475069e-14
  9         9.6831315264e-01
 10         1.1333770998e-01
 11        -6.3867131163e-16
 12         1.2962408957e-15
 13        -1.0850564784e-01
 14         1.4795178969e-15
 15         8.2926648996e-01
 16         3.8821786315e-01
 17         4.6851284229e-15
 18        -3.7035317493e-01
 19        -1.7190363009e-02
 20         8.2926648996e-01
 21         3.8821786315e-01
 22         1.7269601457e-15
 23         3.7035317493e-01
 24        -1.7190363009e-02
 Sym= A
 Ene=         1.9365137083e+00
 Spin= Alpha
 Occup=         0.0000000000e+00
  1        -7.9586430721e-14
  2        -1.7571333597e-13
  3         3.2178695105e-13
  4        -5.9701925180e-16
  5         5.0326446222e-03
  6        -2.6669633401e-15
  7        -3.3095797645e-16
  8        -8.9399215710e-01
  9        -1.1382466270e-13
 10        -1.5025116160e-14
 11        -4.2230049293e-16
 12        -2.9593127910e-02
 13         1.7818236668e-14
 14         9.4981912170e-17
 15         3.8359663717e-01
 16         9.0493900453e-02
 17         9.8805988819e-16
 18         4.7216067353e-01
 19         6.9444844305e-01
 20        -3.8359663717e-01
 21        -9.0493900454e-02
 22         1.1716309211e-15
 23         4.7216067353e-01
 24        -6.9444844305e-01
 Sym= A
 Ene=         2.4502932393e+00
 Spin= Alpha
 Occup=         0.0000000000e+00
  1         2.2222439309e-14
  2         5.7108413037e-14
  3         4.3823673254e-14
  4         2.0913943850e-16
  5         8.3690170361e-01
  6        -4.4818534421e-14
  7         4.8011171052e-17
  8         1.4737384150e-01
  9        -7.6048598966e-15
 10        -4.8434389905e-15
 11         5.3650891293e-16
 12         1.3788450354e-01
 13         7.1810052670e-15
 14         9.2685725587e-16
 15        -2.9270427151e-01
 16        -3.3026166214e-01
 17         3.8249173044e-17
 18         7.2587388155e-01
 19        -5.5285356202e-01
 20         2.9270427151e-01
 21         3.3026166214e-01
 22        -6.3696833808e-16
 23         7.2587388155e-01
 24         5.5285356202e-01
 Sym= A
 Ene=         2.4895131918e+00
 Spin= Alpha
 Occup=         0.0000000000e+00
  1         2.7732627152e-01
  2         7.2709356072e-01
  3         7.9221799038e-01
  4         2.0928642044e-16
  5        -5.0479595812e-14
  6        -6.7153030887e-01
  7        -5.2446825693e-16
  8        -2.5792944987e-14
  9        -1.7883253761e-01
 10        -5.2138831613e-02
 11        -1.1070153748e-16
 12        -1.9440690453e-14
 13         2.1733008285e-01
 14         2.5230814752e-16
 15        -4.7718732869e-01
 16        -1.5901855253e-01
 17         3.4948730593e-16
 18         7.4123844223e-01
 19        -5.4068373247e-01
 20        -4.7718732869e-01
 21        -1.5901855253e-01
 22         3.0880810384e-16
 23        -7.4123844223e-01
 24        -5.4068373247e-01
 Sym= A
 Ene=         3.2871658571e+00
 Spin= Alpha
 Occup=         0.0000000000e+00
  1         6.8989229920e-16
  2         1.4925844639e-15
  3        -3.7353661850e-15
  4         1.1757753680e-02
  5        -1.1527572988e-16
  6         7.7577316564e-16
  7        -3.1197338471e-01
  8        -1.2045995354e-15
  9         3.8306452394e-15
 10        -8.3197390712e-15
 11         1.0431180341e+00
 12         4.3593523925e-16
 13        -1.5834553494e-15
 14        -2.3667944520e-14
 15         2.1249634470e-15
 16         1.2563716443e-15
 17         3.9884082539e-01
 18        -3.4456728183e-15
 19        -2.1949230339e-15
 20         1.3371116820e-15
 21        -4.5381504901e-16
 22         3.9884082539e-01
 23         2.2969302262e-15
 24        -3.6216676550e-15
 Sym= A
 Ene=         3.3367826852e+00
 Spin= Alpha
 Occup=         0.0000000000e+00
  1        -1.0991038763e-15
  2        -2.9290122894e-15
  3        -3.6822213238e-17
  4        -4.8430983674e-16
  5        -1.7175089800e-15
  6         6.7772864635e-16
  7        -4.7023531812e-15
  8         1.0377786403e-15
  9         6.1481520039e-16
 10         4.7740239995e-16
 11         2.3840453752e-14
 12         6.6411215950e-16
 13         3.0738733021e-15
 14         1.0656478698e+00
 15         3.2373883091e-15
 16        -1.2456920820e-15
 17        -3.7070531484e-01
 18        -1.8194639819e-15
 19         2.0552266795e-15
 20         9.3275120878e-16
 21         3.3006344730e-16
 22         3.7070531484e-01
 23         8.7566342801e-17
 24         1.1354070282e-15
 Sym= A
 Ene=         3.5114195334e+00
 Spin= Alpha
 Occup=         0.0000000000e+00
  1         8.3369613078e-02
  2         1.5357700787e-01
  3        -5.3859009600e-01
  4        -3.2752877220e-16
  5        -5.9807324528e-15
  6         1.4818419123e-02
  7         3.5561347891e-15
  8        -2.8421765472e-15
  9         5.3016112641e-01
 10        -1.0830651356e+00
 11        -8.3895098539e-15
 12         7.2580404584e-15
 13        -1.9080879925e-01
 14         1.0534140621e-15
 15         2.9641514610e-01
 16         3.5585887232e-02
 17        -4.4188925079e-15
 18        -3.4686207745e-01
 19        -3.1805597522e-01
 20         2.9641514610e-01
 21         3.5585887232e-02
 22        -3.8657010646e-15
 23         3.4686207745e-01
 24        -3.1805597522e-01
 Sym= A
 Ene=         3.8621076380e+00
 Spin= Alpha
 Occup=         0.0000000000e+00
  1         1.4507773895e-01
  2         1.8049642719e-01
  3        -2.2733134225e+00
  4         4.8319058967e-16
  5        -5.1099099723e-14
  6         4.0503293056e-01
  7        -4.0998969766e-16
  8        -9.2069804154e-14
  9         9.3099975338e-01
 10        -1.5217253288e-01
 11         2.6819592064e-16
 12         1.4437761382e-13
 13         1.1557040925e+00
 14        -2.8975808993e-15
 15         1.2402947753e+00
 16         1.9197891594e-01
 17         8.0829428317e-16
 18        -6.2086377950e-01
 19         4.9137568904e-01
 20         1.2402947753e+00
 21         1.9197891594e-01
 22        -1.4521133878e-15
 23         6.2086377950e-01
 24         4.9137568904e-01
 Sym= A
 Ene=         4.1490461905e+00
 Spin= Alpha
 Occup=         0.0000000000e+00
  1         1.9943469895e-14
  2         2.6510281009e-14
  3        -2.9592683272e-13
  4         3.0297414265e-16
  5         4.6760469672e-01
  6         5.1936457957e-14
  7        -7.7193120676e-16
  8         1.1410075057e+00
  9         1.2335838713e-13
 10        -2.2274892053e-14
 11         5.3114628602e-16
 12        -1.3262334678e+00
 13         1.2537580695e-13
 14         1.0680142249e-15
 15        -1.0847778032e+00
 16        -2.8854948387e-01
 17         2.8094774502e-16
 18         6.0444824602e-01
 19        -4.9710818461e-01
 20         1.0847778032e+00
 21         2.8854948387e-01
 22         4.0487466221e-16
 23         6.0444824602e-01
 24         4.9710818461e-01
