[Molden Format]
[Atoms] (AU)
O    1    8           0.0000000000         0.0000000000         0.2225908403
H    2    1           0.0000000000         1.4275992707        -0.8903652510
H    3    1           0.0000000000        -1.4275992707        -0.8903652510
[GTO]
  1 0
 s    8  1.00
    11720.0000000000         0.0007100000
     1759.0000000000         0.0054700000
      400.8000000000         0.0278370000
      113.7000000000         0.1048000000
       37.0300000000         0.2830620000
       13.2700000000         0.4487190000
        5.0250000000         0.2709520000
        1.0130000000         0.0154580000
 s    8  1.00
    11720.0000000000        -0.0001600000
     1759.0000000000        -0.0012630000
      400.8000000000        -0.0062670000
      113.7000000000        -0.0257160000
       37.0300000000        -0.0709240000
       13.2700000000        -0.1654110000
        5.0250000000        -0.1169550000
        1.0130000000         0.5573680000
 s    1  1.00
        0.3023000000         1.0000000000
 p    3  1.00
       17.7000000000         0.0430180000
        3.8540000000         0.2289130000
        1.0460000000         0.5087280000
 p    1  1.00
        0.2753000000         1.0000000000
 d    1  1.00
        1.1850000000         1.0000000000

  2 0
 s    3  1.00
       13.0100000000         0.0196850000
        1.9620000000         0.1379770000
        0.4446000000         0.4781480000
 s    1  1.00
        0.1220000000         1.0000000000
 p    1  1.00
        0.7270000000         1.0000000000

  3 0
 s    3  1.00
       13.0100000000         0.0196850000
        1.9620000000         0.1379770000
        0.4446000000         0.4781480000
 s    1  1.00
        0.1220000000         1.0000000000
 p    1  1.00
        0.7270000000         1.0000000000

[5D7F]
[9G]

[MO]
 Sym= A
 Ene=        -2.0223602243e+01
 Spin= Alpha
 Occup=         1.0000000000e+00
  1         1.0008679796e+00
  2         1.0794704374e-03
  3        -2.9011205432e-03
  4        -2.4397378336e-16
  5         5.3769576284e-16
  6        -1.2874566580e-03
  7         4.9634778185e-16
  8        -3.5194822867e-16
  9         4.3591733854e-04
 10         1.2923778353e-04
 11         6.9653372751e-17
 12         1.1168608749e-15
 13        -3.2805958016e-05
 14         6.6415993911e-16
 15        -1.1093183644e-04
 16         4.3793511745e-04
 17        -2.4947081216e-16
 18         4.3534877235e-04
 19        -3.5791802081e-04
 20        -1.1093183644e-04
 21         4.3793511744e-04
 22         2.8883837069e-17
 23        -4.3534877235e-04
 24        -3.5791802082e-04
 Sym= A
 Ene=        -1.0400269823e+00
 Spin= Alpha
 Occup=         1.0000000000e+00
  1         3.4695101560e-03
  2        -4.5627379789e-01
  3        -3.7314802287e-01
  4         7.1249310047e-17
  5        -1.0414277101e-15
  6         9.8295389298e-02
  7        -1.0697200157e-16
  8        -7.5135960408e-15
  9        -1.8971841349e-02
 10        -3.0356956892e-03
 11         1.9335380266e-17
 12         1.4747827927e-15
 13         1.3826259018e-03
 14        -2.7546129528e-19
 15        -1.8228685220e-01
 16        -1.2408989899e-02
 17         9.5748510051e-17
 18         3.4972968777e-02
 19        -2.0678711223e-02
 20        -1.8228685220e-01
 21        -1.2408989899e-02
 22         2.2221020049e-16
 23        -3.4972968777e-02
 24        -2.0678711223e-02
 Sym= A
 Ene=        -3.7588417060e-01
 Spin= Alpha
 Occup=         1.0000000000e+00
  1        -9.5975839324e-16
  2        -6.0102800873e-15
  3        -4.9813101003e-15
  4        -3.6203224212e-16
  5         4.6806321531e-01
  6        -7.4570447805e-15
  7        -2.5953002446e-16
  8         2.1068070281e-01
  9        -5.7415646418e-15
 10         1.8892354019e-16
 11        -2.9069385337e-17
 12        -2.3433117971e-02
 13        -6.1730718424e-16
 14         1.1612392693e-16
 15         3.0941373436e-01
 16         1.7780920883e-01
 17        -2.2883417921e-17
 18        -1.8250920262e-02
 19         3.1811168506e-02
 20        -3.0941373436e-01
 21        -1.7780920883e-01
 22         6.7436919127e-17
 23        -1.8250920262e-02
 24        -3.1811168506e-02
 Sym= A
 Ene=        -2.7289929799e-01
 Spin= Alpha
 Occup=         1.0000000000e+00
  1         1.3172819415e-02
  2        -1.2032158147e-01
  3        -3.5780025541e-01
  4        -1.2365224198e-15
  5        -6.0082391707e-15
  6        -5.4751193627e-01
  7        -7.6042571432e-16
  8        -2.2293792668e-15
  9        -3.8760278284e-01
 10         1.4190567652e-02
 11        -4.6979582698e-17
 12         9.5470982998e-17
 13        -4.3736036409e-03
 14         1.7302583491e-16
 15         1.8712534011e-01
 16         3.9247638051e-02
 17        -1.9006305815e-16
 18        -2.5585766785e-02
 19        -3.5511498684e-03
 20         1.8712534011e-01
 21         3.9247638051e-02
 22        -2.3943101878e-16
 23         2.5585766785e-02
 24        -3.5511498684e-03
 Sym= A
 Ene=        -1.8472023271e-01
 Spin= Alpha
 Occup=         1.0000000000e+00
  1         2.7750076869e-17
  2        -1.9611640510e-16
  3        -6.6473731382e-16
  4         6.1821904584e-01
  5         2.7841040347e-16
  6        -9.4758701461e-16
  7         5.1352000163e-01
  8        -1.4898698447e-16
  9        -7.5879207907e-16
 10        -4.9515342067e-17
 11        -1.4964180081e-02
 12         4.7045335179e-18
 13        -6.0456589680e-17
 14         4.4337702352e-16
 15         4.7664096867e-16
 16         2.7259404087e-16
 17         2.6283169760e-02
 18        -5.4648891798e-17
 19         1.0955135987e-16
 20        -6.5201978099e-18
 21         1.3242443579e-16
 22         2.6283169760e-02
 23         8.7039233317e-18
 24        -7.1417503686e-17
 Sym= A
 Ene=         1.6969005991e-01
 Spin= Alpha
 Occup=         1.0000000000e+00
  1         4.7267490313e-02
  2        -8.3172073439e-02
  3        -9.8364707710e-01
  4        -1.7979201724e-16
  5        -1.3939954953e-15
  6         1.9596543365e-01
  7        -1.4788778895e-17
  8         3.9887969814e-15
  9         3.2152060775e-01
 10        -8.5160417167e-03
 11         5.0880917660e-18
 12         3.7335691648e-17
 13         7.8141839260e-03
 14         1.3526557990e-16
 15         7.4779837176e-02
 16         8.1618658498e-01
 17        -4.1746512572e-17
 18        -1.3292897078e-02
 19         1.4310480641e-02
 20         7.4779837176e-02
 21         8.1618658498e-01
 22         1.9777936499e-16
 23         1.3292897078e-02
 24         1.4310480641e-02
 Sym= A
 Ene=         4.6712056309e-01
 Spin= Alpha
 Occup=         0.0000000000e+00
  1        -1.5735991537e-15
  2        -3.3602268302e-15
  3         1.7036740257e-14
  4         1.5168013375e-16
  5         2.9343501672e-01
  6         2.2828194880e-15
  7        -1.7267583543e-16
  8         6.8790165543e-01
  9        -9.9214129873e-15
 10        -2.9346312933e-16
 11        -3.7201534396e-17
 12        -2.7853643852e-02
 13        -1.6691797251e-15
 14        -1.1436283637e-16
 15         2.5660013002e-02
 16        -1.4714330452e+00
 17        -2.0428645234e-16
 18         2.3048498042e-02
 19        -2.4250743675e-02
 20        -2.5660013002e-02
 21         1.4714330452e+00
 22         2.3691115433e-16
 23         2.3048498042e-02
 24         2.4250743675e-02
 Sym= A
 Ene=         1.0925893810e+00
 Spin= Alpha
 Occup=         0.0000000000e+00
  1         1.0160042483e-14
  2         3.0986152905e-14
  3        -6.0587604561e-14
  4        -1.3126930688e-15
  5         2.5164093152e-01
  6        -4.3582117445e-14
  7         1.7757421555e-15
  8         5.2308457804e-01
  9         2.5028187821e-14
 10        -9.2562767913e-16
 11         4.1128189280e-17
 12         1.1035467728e-01
 13         1.0971904361e-14
 14         2.2729711738e-16
 15        -9.5632847998e-01
 16         6.1714985773e-01
 17        -4.3762292221e-16
 18        -7.8633336554e-02
 19         1.4413712281e-01
 20         9.5632847998e-01
 21        -6.1714985773e-01
 22        -6.4655658067e-16
 23        -7.8633336554e-02
 24        -1.4413712281e-01
 Sym= A
 Ene=         1.1384896433e+00
 Spin= Alpha
 Occup=         0.0000000000e+00
  1         8.3130627251e-02
  2         2.7983137512e-01
  3        -4.5453827973e-01
  4        -1.0176082048e-15
  5        -2.1536922234e-14
  6        -3.5847837116e-01
  7         1.2475972769e-15
  8        -5.8704020411e-14
  9         1.1343892571e-01
 10        -3.4566330580e-03
 11        -1.4777508559e-17
 12        -1.1286128147e-14
 13         1.0615122772e-01
 14         2.5270501840e-16
 15        -7.4068475305e-01
 16         5.7895047566e-01
 17        -5.2230237812e-16
 18        -3.0649684633e-01
 19         7.5694073385e-02
 20        -7.4068475305e-01
 21         5.7895047566e-01
 22        -2.7568103522e-16
 23         3.0649684633e-01
 24         7.5694073385e-02
 Sym= A
 Ene=         1.4456082839e+00
 Spin= Alpha
 Occup=         0.0000000000e+00
  1         2.1621806168e-02
  2         1.7449614179e-01
  3         6.9908508499e-01
  4        -1.7384966780e-14
  5        -1.5407729200e-14
  6         7.4501506408e-01
  7         1.8643378236e-14
  8         4.7895585743e-14
  9        -1.3234582609e+00
 10         5.1006318479e-03
 11        -6.6031206330e-17
 12         1.0845384070e-16
 13         1.0977718050e-02
 14         6.4816548505e-17
 15        -6.1345080454e-01
 16        -7.1282381841e-02
 17        -1.7220933121e-15
 18         8.7474545391e-02
 19        -2.0938853221e-01
 20        -6.1345080454e-01
 21        -7.1282381841e-02
 22         1.5088670004e-16
 23        -8.7474545391e-02
 24        -2.0938853221e-01
 Sym= A
 Ene=         1.4853188187e+00
 Spin= Alpha
 Occup=         0.0000000000e+00
  1         6.1997384882e-16
  2         3.6787925638e-15
  3         1.1114370473e-14
  4         9.7560586423e-01
  5        -6.6428739062e-15
  6         1.3320251085e-14
  7        -1.0329293662e+00
  8         1.6029592248e-14
  9        -2.2942922998e-14
 10         7.8105773324e-17
 11        -8.0676255359e-03
 12        -1.0880376903e-16
 13        -1.9790514951e-17
 14         8.2970654745e-17
 15        -1.6667352442e-14
 16        -5.8305484001e-15
 17         1.0318779895e-02
 18         3.3984508322e-15
 19        -5.2120965743e-15
 20        -6.6608495297e-15
 21         5.1345099129e-15
 22         1.0318779895e-02
 23         1.7354923634e-15
 24        -2.8011174791e-15
 Sym= A
 Ene=         1.5350933380e+00
 Spin= Alpha
 Occup=         0.0000000000e+00
  1         3.2721522849e-15
  2         9.8318195473e-15
  3        -7.7148494158e-15
  4         8.9925388808e-15
  5         7.4587832927e-01
  6         2.8218804598e-14
  7        -9.1559493366e-15
  8        -1.7583369841e+00
  9        -3.6098103801e-14
 10        -8.7382439463e-16
 11        -2.9300929843e-16
 12         5.1168120837e-02
 13         8.9295159727e-16
 14         8.7621462444e-16
 15         3.7501047055e-01
 16         8.2577196216e-01
 17         7.5124890451e-16
 18        -3.0126827651e-01
 19         2.0380171619e-01
 20        -3.7501047055e-01
 21        -8.2577196216e-01
 22        -1.5558958256e-15
 23        -3.0126827651e-01
 24        -2.0380171619e-01
 Sym= A
 Ene=         1.7451645684e+00
 Spin= Alpha
 Occup=         0.0000000000e+00
  1         2.1341217271e-01
  2         5.4702548304e-01
  3        -6.0075680802e-01
  4         5.4600791840e-16
  5        -1.0034036176e-14
  6         9.4775584925e-02
  7        -1.0649734380e-15
  8         6.7264388039e-15
  9        -6.2557462887e-01
 10        -1.1432574978e-01
 11         1.3833786570e-16
 12        -1.3790646731e-15
 13        -7.5038638690e-03
 14         1.4817982190e-15
 15        -2.7862619167e-01
 16         2.1891106699e-01
 17         6.2933699424e-15
 18         3.2229871143e-01
 19         5.5828594221e-01
 20        -2.7862619167e-01
 21         2.1891106699e-01
 22        -5.0522947650e-15
 23        -3.2229871143e-01
 24         5.5828594221e-01
 Sym= A
 Ene=         1.7982722860e+00
 Spin= Alpha
 Occup=         0.0000000000e+00
  1        -3.2548777759e-15
  2        -7.7225843019e-15
  3         1.1940541582e-14
  4        -2.2217149042e-15
  5        -1.5340248530e-15
  6         8.1031250122e-17
  7        -1.6909358634e-14
  8         3.1865804582e-15
  9         1.7684019477e-15
 10         3.9124908942e-16
 11        -3.4487758559e-15
 12        -2.3880129794e-16
 13         3.4976139671e-16
 14         1.3050257983e-01
 15        -2.5885623202e-16
 16        -5.8086933194e-15
 17         6.8621496640e-01
 18        -8.5177183197e-16
 19        -4.9178615852e-15
 20        -6.4444935019e-16
 21         8.0928637869e-16
 22        -6.8621496640e-01
 23         3.0873781275e-15
 24        -5.1211605372e-15
 Sym= A
 Ene=         1.9870805189e+00
 Spin= Alpha
 Occup=         0.0000000000e+00
  1         4.5311007127e-15
  2         9.5145100366e-15
  3        -1.9713119954e-14
  4         3.8490286957e-02
  5        -6.1054644014e-16
  6         5.2486685308e-16
  7         6.0472177205e-01
  8         8.4705360219e-16
  9         6.3962592293e-15
 10         1.3257860742e-15
 11         1.6077627398e-01
 12        -6.5269060284e-16
 13        -8.3353055300e-16
 14         3.6576671770e-15
 15         6.8332992739e-15
 16         5.0642950786e-16
 17        -7.6661364473e-01
 18        -1.4526199784e-15
 19         2.3725798134e-16
 20         6.0620662645e-15
 21         3.3343158976e-15
 22        -7.6661364473e-01
 23         2.4243648205e-15
 24         1.0543153184e-15
 Sym= A
 Ene=         2.1605054221e+00
 Spin= Alpha
 Occup=         0.0000000000e+00
  1         7.2241318334e-01
  2         1.5850612190e+00
  3        -3.0138573229e+00
  4        -5.1355371120e-16
  5        -3.2579601384e-15
  6         1.1213204986e-01
  7        -3.4918219594e-15
  8         2.3583246303e-14
  9         9.8548291789e-01
 10         1.1726063904e-01
 11        -1.4141991455e-15
 12         1.2732578187e-15
 13        -1.0612063618e-01
 14         1.0164958223e-15
 15         8.4693699596e-01
 16         3.7286675613e-01
 17         6.8196765460e-15
 18        -3.6408491496e-01
 19        -3.5503669055e-02
 20         8.4693699596e-01
 21         3.7286675613e-01
 22         3.6162582139e-15
 23         3.6408491496e-01
 24        -3.5503669055e-02
 Sym= A
 Ene=         2.2557380406e+00
 Spin= Alpha
 Occup=         0.0000000000e+00
  1        -5.5924189166e-15
  2        -1.0282512163e-14
  3         4.1756488469e-14
  4         5.4067907021e-16
  5         3.8408877096e-03
  6        -6.4341225407e-15
  7        -4.2620261238e-16
  8         8.6746461742e-01
  9        -2.3463782742e-14
 10        -4.7945528551e-15
 11         3.3693975346e-17
 12         2.7699484467e-02
 13         1.0844495579e-15
 14        -5.2447318055e-16
 15        -3.7081852087e-01
 16        -8.4394796694e-02
 17         8.0009135445e-16
 18        -4.7193844974e-01
 19        -6.9600888283e-01
 20         3.7081852087e-01
 21         8.4394796694e-02
 22        -9.0969201852e-16
 23        -4.7193844974e-01
 24         6.9600888283e-01
 Sym= A
 Ene=         2.7710492066e+00
 Spin= Alpha
 Occup=         0.0000000000e+00
  1         9.1690875618e-14
  2         2.4061767279e-13
  3         2.7933644864e-13
  4         1.9823419592e-16
  5         8.3805032804e-01
  6        -2.2888073641e-13
  7        -1.8924572736e-16
  8         1.3983537578e-01
  9        -6.0053082142e-14
 10        -2.0002271202e-14
 11         8.8766537918e-17
 12         1.4351765902e-01
 13         6.7909760765e-14
 14         2.8278069746e-16
 15        -2.9538135567e-01
 16        -3.2475570958e-01
 17        -7.0382530184e-17
 18         7.2390314232e-01
 19        -5.4734325845e-01
 20         2.9538135567e-01
 21         3.2475570957e-01
 22         2.4474373903e-16
 23         7.2390314231e-01
 24         5.4734325845e-01
 Sym= A
 Ene=         2.8022137931e+00
 Spin= Alpha
 Occup=         0.0000000000e+00
  1         2.7010927380e-01
  2         7.0767649072e-01
  3         8.2030992625e-01
  4         3.7465220533e-16
  5        -2.7471067796e-13
  6        -6.6544100981e-01
  7        -1.7020203477e-16
  8        -6.4598029768e-14
  9        -1.8725087560e-01
 10        -5.3558195936e-02
 11         2.1722775284e-16
 12        -6.0106541394e-14
 13         2.1951237443e-01
 14         5.5299069010e-16
 15        -4.8724787983e-01
 16        -1.6188898878e-01
 17        -4.3315166352e-16
 18         7.4557850283e-01
 19        -5.4047706467e-01
 20        -4.8724787983e-01
 21        -1.6188898878e-01
 22        -3.0591306446e-16
 23        -7.4557850283e-01
 24        -5.4047706467e-01
 Sym= A
 Ene=         3.5953692984e+00
 Spin= Alpha
 Occup=         0.0000000000e+00
  1         7.9655194468e-16
  2         1.8357806272e-15
  3        -3.3937670533e-15
  4         1.0917201274e-02
  5        -3.8236294853e-17
  6         7.9838738397e-16
  7        -3.1337171237e-01
  8        -1.6150752099e-15
  9         3.4182610857e-15
 10        -7.6836538144e-15
 11         1.0431423801e+00
 12         1.1396513540e-15
 13        -2.3458909750e-15
 14        -3.9655445551e-14
 15         2.1241347679e-15
 16         1.0352890234e-15
 17         3.9881248317e-01
 18        -3.2833935385e-15
 19        -2.2450602882e-15
 20         2.2084412355e-16
 21        -5.5411711605e-17
 22         3.9881248317e-01
 23         1.8016549063e-15
 24        -3.6101014658e-15
 Sym= A
 Ene=         3.6502324905e+00
 Spin= Alpha
 Occup=         0.0000000000e+00
  1        -6.7475082170e-16
  2        -1.9065242486e-15
  3        -4.0530239259e-16
  4        -7.6447872360e-16
  5        -1.3741597740e-15
  6         7.5888060968e-16
  7        -1.0979235416e-14
  8         1.3093129142e-15
  9         1.0078857564e-15
 10        -1.1411917498e-16
 11         3.9324373679e-14
 12         1.5737772698e-15
 13         1.6809402055e-15
 14         1.0657695332e+00
 15         3.4223791380e-15
 16        -2.0833587501e-15
 17        -3.7006815502e-01
 18        -2.2038175478e-15
 19         8.7806289097e-16
 20         6.7376581023e-16
 21         7.2299868651e-16
 22         3.7006815502e-01
 23         1.8079865809e-17
 24         8.4533949419e-16
 Sym= A
 Ene=         3.8198269098e+00
 Spin= Alpha
 Occup=         0.0000000000e+00
  1         8.5771084215e-02
  2         1.5905988030e-01
  3        -5.5524130706e-01
  4        -3.4906541710e-16
  5        -4.3679879925e-15
  6         1.9039966198e-02
  7         3.3365277229e-15
  8        -2.9776621097e-15
  9         5.3703682205e-01
 10        -1.0838788346e+00
 11        -7.8930674810e-15
 12         2.8825560535e-15
 13        -1.8437984965e-01
 14         1.5929510245e-17
 15         3.0637358369e-01
 16         3.5674931737e-02
 17        -4.0455515017e-15
 18        -3.5019423754e-01
 19        -3.1469335599e-01
 20         3.0637358369e-01
 21         3.5674931737e-02
 22        -3.4339170485e-15
 23         3.5019423754e-01
 24        -3.1469335599e-01
 Sym= A
 Ene=         4.1739040303e+00
 Spin= Alpha
 Occup=         0.0000000000e+00
  1         1.4283392920e-01
  2         1.7633095308e-01
  3        -2.2639134656e+00
  4         5.0399042831e-16
  5        -2.8238085931e-14
  6         4.0590811291e-01
  7        -8.8117890387e-16
  8        -5.5506325485e-14
  9         9.2499168357e-01
 10        -1.4573433572e-01
 11         9.5680489305e-16
 12         8.4843991714e-14
 13         1.1565968529e+00
 14        -1.8632932580e-15
 15         1.2389819349e+00
 16         1.8986275213e-01
 17         9.9082335979e-16
 18        -6.1876619369e-01
 19         4.9298407961e-01
 20         1.2389819349e+00
 21         1.8986275213e-01
 22        -2.9834117882e-16
 23         6.1876619369e-01
 24         4.9298407961e-01
 Sym= A
 Ene=         4.4583580310e+00
 Spin= Alpha
 Occup=         0.0000000000e+00
  1         1.0313971826e-14
  2         1.2169327181e-14
  3        -1.8096677211e-13
  4         2.8606154539e-16
  5         4.7422236302e-01
  6         3.4846711819e-14
  7        -1.1590077046e-15
  8         1.1329575001e+00
  9         7.2896471106e-14
 10        -1.2086476886e-14
 11         9.8432060360e-16
 12        -1.3254920389e+00
 13         7.4519353425e-14
 14         1.6734729732e-15
 15        -1.0842091609e+00
 16        -2.8534306298e-01
 17         2.5691545113e-16
 18         6.0621938296e-01
 19        -4.9712082704e-01
 20         1.0842091609e+00
 21         2.8534306298e-01
 22         1.6584648072e-15
 23         6.0621938296e-01
 24         4.9712082704e-01
 Sym= A
 Ene=        -2.0211448268e+01
 Spin= Beta
 Occup=         1.0000000000e+00
  1         1.0008946832e+00
  2         1.1499436933e-03
  3        -2.9233876348e-03
  4        -2.4409764175e-16
  5         5.4076041776e-16
  6        -1.1459800939e-03
  7         4.7603792571e-16
  8        -6.1182347463e-16
  9         4.1136307998e-04
 10        -4.1268395423e-05
 11         7.9831121801e-17
 12         1.1374291531e-15
 13        -1.1185383185e-04
 14         6.7459620495e-16
 15        -1.1655370162e-04
 16         4.4591272405e-04
 17        -2.4643292435e-16
 18         4.4246955580e-04
 19        -4.0525820475e-04
 20        -1.1655370162e-04
 21         4.4591272405e-04
 22         1.3469491666e-16
 23        -4.4246955580e-04
 24        -4.0525820475e-04
 Sym= A
 Ene=        -1.0002312387e+00
 Spin= Beta
 Occup=         1.0000000000e+00
  1         1.1671344639e-02
  2        -4.3778215146e-01
  3        -3.8989606876e-01
  4         1.0263686783e-16
  5        -2.2045347295e-15
  6         5.3682322841e-02
  7        -6.9395142682e-17
  8        -6.9896493664e-15
  9        -2.8190213148e-02
 10         1.6330456035e-03
 11        -3.4769846772e-19
 12         1.0968056516e-15
 13         3.5494015204e-03
 14        -5.1921087251e-18
 15        -1.8685148943e-01
 16        -1.4745068687e-02
 17         1.1410835569e-16
 18         3.5692061668e-02
 19        -2.1414593352e-02
 20        -1.8685148943e-01
 21        -1.4745068687e-02
 22         4.2276914958e-17
 23        -3.5692061668e-02
 24        -2.1414593352e-02
 Sym= A
 Ene=        -3.7194162044e-01
 Spin= Beta
 Occup=         1.0000000000e+00
  1        -1.2652901401e-15
  2        -5.8382302649e-15
  3         2.5964794205e-16
  4        -1.5794030308e-16
  5         4.8801792996e-01
  6        -4.5531556858e-15
  7        -9.1318642200e-17
  8         2.3627063477e-01
  9        -5.4944850395e-15
 10         6.3144802498e-17
 11         1.1552222899e-17
 12        -2.1276583994e-02
 13        -4.4112079387e-16
 14         1.0601622770e-16
 15         3.1101186371e-01
 16         1.0451474981e-01
 17        -2.0968801652e-17
 18        -2.3413164724e-02
 19         3.5321334013e-02
 20        -3.1101186371e-01
 21        -1.0451474981e-01
 22         1.0390664596e-16
 23        -2.3413164724e-02
 24        -3.5321334013e-02
 Sym= A
 Ene=        -2.5083401800e-01
 Spin= Beta
 Occup=         1.0000000000e+00
  1         3.4585570509e-03
  2        -1.2941731196e-01
  3        -3.3545306818e-01
  4        -4.8363094397e-16
  5        -4.4163579598e-15
  6        -5.3726411345e-01
  7        -2.0604545709e-16
  8         6.3634910458e-17
  9        -3.8273911851e-01
 10         1.1832182934e-02
 11        -2.8345738011e-17
 12        -7.2187387569e-16
 13        -4.5286488274e-03
 14         1.8391974707e-17
 15         2.0971762808e-01
 16         3.9896378493e-02
 17         5.5750303431e-17
 18        -2.9782409113e-02
 19        -9.8943171266e-04
 20         2.0971762808e-01
 21         3.9896378493e-02
 22        -1.2830408169e-16
 23         2.9782409113e-02
 24        -9.8943171265e-04
 Sym= A
 Ene=        -1.7130143121e-01
 Spin= Beta
 Occup=         1.0000000000e+00
  1        -1.8275861373e-17
  2        -9.6097720352e-17
  3        -2.3529754873e-16
  4         6.1498682866e-01
  5         2.0477875671e-16
  6        -6.0342558871e-17
  7         5.1732206278e-01
  8         2.2523623603e-17
  9        -4.0185951729e-16
 10        -4.3102566474e-17
 11        -1.1145431353e-02
 12        -4.5805099944e-18
 13         4.3451727159e-18
 14         4.9589620298e-16
 15        -2.6861045738e-17
 16         1.7519726689e-16
 17         2.5910531364e-02
 18         6.9205636462e-17
 19         2.4083297741e-17
 20         1.3622573186e-16
 21         2.0766516250e-16
 22         2.5910531364e-02
 23        -1.6912866374e-17
 24        -4.6750472070e-18
 Sym= A
 Ene=         4.7773435709e-01
 Spin= Beta
 Occup=         0.0000000000e+00
  1         5.9745311713e-02
  2        -5.8349517135e-02
  3        -1.0613933483e+00
  4        -2.1951034678e-16
  5        -2.4898487393e-14
  6         1.6296999176e-01
  7        -6.7731170412e-18
  8        -6.4225018517e-14
  9         3.7168477421e-01
 10        -5.6210356235e-03
 11         2.9487759978e-17
 12         3.1378948530e-15
 13         1.5514638625e-02
 14        -3.2928222848e-17
 15         4.2517521144e-02
 16         8.5722557424e-01
 17        -1.3607368279e-16
 18        -3.5511522679e-02
 19         2.6941934447e-02
 20         4.2517521144e-02
 21         8.5722557423e-01
 22         8.8501193492e-17
 23         3.5511522679e-02
 24         2.6941934447e-02
 Sym= A
 Ene=         5.3662747507e-01
 Spin= Beta
 Occup=         0.0000000000e+00
  1         6.9126364788e-15
  2        -3.8970036298e-15
  3        -1.0204970520e-13
  4         1.6511124982e-16
  5         2.6655306076e-01
  6         1.7837019576e-14
  7        -2.3833676994e-16
  8         6.8935978329e-01
  9         3.2121278007e-14
 10        -8.4126402478e-16
 11        -8.6225237717e-17
 12        -2.4890140844e-02
 13         2.1540210369e-16
 14        -5.5674751436e-17
 15         3.2974358228e-03
 16        -1.4891301709e+00
 17        -1.5585868420e-16
 18         3.3392959543e-02
 19        -3.1538670057e-02
 20        -3.2974358228e-03
 21         1.4891301709e+00
 22         8.9801475851e-17
 23         3.3392959543e-02
 24         3.1538670057e-02
 Sym= A
 Ene=         1.1031090038e+00
 Spin= Beta
 Occup=         0.0000000000e+00
  1         8.2802032112e-15
  2         2.3610765939e-14
  3        -4.6832265420e-14
  4        -1.1940394568e-15
  5         2.5648427456e-01
  6        -2.8064864640e-14
  7         1.6448393981e-15
  8         5.2191374773e-01
  9         2.4399500786e-14
 10        -1.1722841041e-15
 11        -1.8914390680e-16
 12         1.1280563036e-01
 13         6.5924167692e-15
 14         4.3404201530e-16
 15        -9.6007695286e-01
 16         6.1415082079e-01
 17        -1.6088280185e-16
 18        -7.3423205397e-02
 19         1.3874031543e-01
 20         9.6007695286e-01
 21        -6.1415082079e-01
 22        -1.2439737336e-15
 23        -7.3423205397e-02
 24        -1.3874031543e-01
 Sym= A
 Ene=         1.1875796256e+00
 Spin= Beta
 Occup=         0.0000000000e+00
  1         6.4177278654e-02
  2         2.6121212050e-01
  3        -2.9355885953e-01
  4        -9.3973632392e-16
  5        -5.1799862820e-15
  6        -3.4197961535e-01
  7         1.5700149852e-15
  8        -4.0647131035e-14
  9         8.5908060096e-03
 10        -6.3673205445e-03
 11        -5.6310742670e-17
 12        -5.8275470212e-15
 13         1.0778442998e-01
 14        -2.9812064839e-17
 15        -7.7790870682e-01
 16         5.1333332226e-01
 17        -1.1452909148e-15
 18        -3.0126132056e-01
 19         6.0100197427e-02
 20        -7.7790870682e-01
 21         5.1333332226e-01
 22        -2.5196725217e-16
 23         3.0126132056e-01
 24         6.0100197427e-02
 Sym= A
 Ene=         1.4700162810e+00
 Spin= Beta
 Occup=         0.0000000000e+00
  1         2.9703417873e-02
  2         1.7942531324e-01
  3         6.5992914108e-01
  4        -2.0307521598e-14
  5         1.0744043652e-16
  6         7.6584388211e-01
  7         2.1107624826e-14
  8         1.3037139321e-14
  9        -1.3185291681e+00
 10         1.0885085668e-02
 11         5.2860266782e-17
 12         3.0761285100e-15
 13         6.8949624733e-03
 14        -2.0637039737e-17
 15        -5.7428515459e-01
 16        -7.2104604797e-02
 17        -1.3622281609e-16
 18         1.0876287532e-01
 19        -2.0860265076e-01
 20        -5.7428515459e-01
 21        -7.2104604797e-02
 22        -5.1377170702e-16
 23        -1.0876287532e-01
 24        -2.0860265076e-01
 Sym= A
 Ene=         1.5096696400e+00
 Spin= Beta
 Occup=         0.0000000000e+00
  1         5.2653775276e-16
  2         3.5370412012e-15
  3         1.3965926465e-14
  4         9.7771650338e-01
  5        -6.1810812058e-15
  6         1.5871826686e-14
  7        -1.0339278943e+00
  8         1.4288813697e-14
  9        -2.6948532515e-14
 10         2.1632065953e-16
 11        -1.1675355062e-03
 12        -9.2454469346e-18
 13        -5.8264578839e-17
 14         1.0804918114e-16
 15        -1.7232796134e-14
 16        -5.6668322727e-15
 17         1.3940615313e-02
 18         3.7689345700e-15
 19        -5.8670620515e-15
 20        -8.6274398838e-15
 21         3.8630802694e-15
 22         1.3940615313e-02
 23         7.3706176290e-16
 24        -3.8965015501e-15
 Sym= A
 Ene=         1.5523248028e+00
 Spin= Beta
 Occup=         0.0000000000e+00
  1        -3.7056927862e-15
  2        -8.4173554999e-15
  3         1.1182681749e-14
  4         8.2900859443e-15
  5         7.4875147028e-01
  6         1.1237704753e-14
  7        -8.1269908723e-15
  8        -1.7596225850e+00
  9        -2.0402083645e-14
 10        -8.7731303864e-16
 11         2.7351302466e-17
 12         5.3829378013e-02
 13        -8.2847086740e-16
 14         4.5252304197e-17
 15         3.7489173686e-01
 16         8.1024589397e-01
 17        -1.1955887597e-15
 18        -2.9482230399e-01
 19         2.0370560949e-01
 20        -3.7489173686e-01
 21        -8.1024589397e-01
 22        -4.3168622239e-17
 23        -2.9482230399e-01
 24        -2.0370560949e-01
 Sym= A
 Ene=         1.7573233637e+00
 Spin= Beta