[Molden Format]
[Atoms] (AU)
O    1    8           0.0000000000         0.0000000000         0.2225908403
H    2    1           0.0000000000         1.4275992707        -0.8903652510
H    3    1           0.0000000000        -1.4275992707        -0.8903652510
[GTO]
  1 0
 s    8  1.00
    11720.0000000000         0.0007100000
     1759.0000000000         0.0054700000
      400.8000000000         0.0278370000
      113.7000000000         0.1048000000
       37.0300000000         0.2830620000
       13.2700000000         0.4487190000
        5.0250000000         0.2709520000
        1.0130000000         0.0154580000
 s    8  1.00
    11720.0000000000        -0.0001600000
     1759.0000000000        -0.0012630000
      400.8000000000        -0.0062670000
      113.7000000000        -0.0257160000
       37.0300000000        -0.0709240000
       13.2700000000        -0.1654110000
        5.0250000000        -0.1169550000
        1.0130000000         0.5573680000
 s    1  1.00
        0.3023000000         1.0000000000
 p    3  1.00
       17.7000000000         0.0430180000
        3.8540000000         0.2289130000
        1.0460000000         0.5087280000
 p    1  1.00
        0.2753000000         1.0000000000
 d    1  1.00
        1.1850000000         1.0000000000
 s    1  1.00
        0.0789600000         1.0000000000
 p    1  1.00
        0.0685600000         1.0000000000
 d    1  1.00
        0.3320000000         1.0000000000

  2 0
 s    3  1.00
       13.0100000000         0.0196850000
        1.9620000000         0.1379770000
        0.4446000000         0.4781480000
 s    1  1.00
        0.1220000000         1.0000000000
 p    1  1.00
        0.7270000000         1.0000000000
 s    1  1.00
        0.0297400000         1.0000000000
 p    1  1.00
        0.1410000000         1.0000000000

  3 0
 s    3  1.00
       13.0100000000         0.0196850000
        1.9620000000         0.1379770000
        0.4446000000         0.4781480000
 s    1  1.00
        0.1220000000         1.0000000000
 p    1  1.00
        0.7270000000         1.0000000000
 s    1  1.00
        0.0297400000         1.0000000000
 p    1  1.00
        0.1410000000         1.0000000000

[5D7F]
[9G]

[MO]
 Sym= A
 Ene=        -2.0577549085e+01
 Spin= Alpha
 Occup=         2.0000000000e+00
  1         1.0014573889e+00
  2         2.1951640425e-03
  3        -7.2106100462e-03
  4        -1.9745290013e-16
  5        -9.6511257642e-17
  6        -1.6468180936e-03
  7         3.2048326863e-16
  8        -4.9068065210e-15
  9         1.4995475578e-03
 10         3.5959424534e-06
 11         2.1148024409e-16
 12        -2.9227806178e-16
 13        -1.0713885569e-04
 14         1.1533641035e-17
 15        -4.4823714615e-03
 16         2.7382040235e-16
 17        -1.1166759783e-14
 18         6.6138403447e-04
 19         1.7763003732e-05
 20        -8.8169096918e-17
 21         1.8889070916e-15
 22         2.6842854017e-04
 23         3.8608284529e-16
 24         3.1403006167e-04
 25         3.5692036184e-03
 26         1.4296935247e-17
 27         3.6390794642e-04
 28        -2.9385152704e-04
 29         3.1814933944e-04
 30        -6.5297618827e-16
 31        -1.1762178949e-03
 32         1.0124192748e-03
 33         3.1403006167e-04
 34         3.5692036184e-03
 35         2.9858798165e-16
 36        -3.6390794643e-04
 37        -2.9385152704e-04
 38         3.1814933942e-04
 39        -2.5879490713e-16
 40         1.1762178949e-03
 41         1.0124192748e-03
 Sym= A
 Ene=        -1.3565798261e+00
 Spin= Alpha
 Occup=         2.0000000000e+00
  1         5.9177016608e-03
  2        -4.4834420924e-01
  3        -3.7471527901e-01
  4        -1.4283340162e-16
  5        -1.0149652624e-14
  6         7.8753882302e-02
  7        -2.7098891595e-16
  8         1.4161696020e-13
  9        -1.8973769136e-02
 10        -2.8498249049e-03
 11        -5.0376110429e-18
 12        -3.7684036892e-15
 13         6.8004436571e-03
 14        -2.5257408369e-17
 15        -5.7573522743e-02
 16        -6.2689963925e-16
 17         1.6551306489e-13
 18         1.1286264579e-02
 19         6.0213987200e-03
 20         1.9739753097e-16
 21        -2.6662788942e-14
 22        -1.9605033036e-02
 23         1.6075443552e-16
 24        -2.0621936778e-01
 25         2.5701895935e-02
 26        -1.5813883785e-16
 27         3.7114769593e-02
 28        -2.2532285376e-02
 29         1.9380150749e-03
 30         1.1588841761e-16
 31        -4.8101344215e-03
 32         7.9746103192e-03
 33        -2.0621936778e-01
 34         2.5701895936e-02
 35        -1.2849851587e-16
 36        -3.7114769593e-02
 37        -2.2532285376e-02
 38         1.9380150751e-03
 39         1.1192779627e-15
 40         4.8101344218e-03
 41         7.9746103193e-03
 Sym= A
 Ene=        -7.1815670937e-01
 Spin= Alpha
 Occup=         2.0000000000e+00
  1        -6.3212414666e-15
  2        -1.4904690205e-14
  3         6.1146955099e-14
  4        -6.6592239614e-16
  5         4.9981327918e-01
  6        -4.3809988840e-15
  7        -5.0603087153e-17
  8         1.9345397208e-01
  9        -2.7994416548e-14
 10         1.5904515424e-16
 11        -2.1018667202e-16
 12        -2.8757907058e-02
 13        -1.1113692197e-15
 14         1.3780189508e-16
 15         1.6586367517e-13
 16         5.3108831900e-16
 17         1.9024792843e-02
 18        -3.2961887033e-14
 19         9.1597920691e-16
 20        -8.6386281168e-17
 21         3.1139332366e-02
 22        -1.7512888574e-15
 23        -2.8174949186e-16
 24         3.4971816660e-01
 25         8.1461392182e-02
 26        -1.3239383727e-16
 27        -2.5784316110e-02
 28         3.4739117687e-02
 29        -4.5171073887e-03
 30         2.7618374129e-16
 31        -4.4620748756e-03
 32         1.3708165423e-03
 33        -3.4971816660e-01
 34        -8.1461392182e-02
 35         1.3844922635e-17
 36        -2.5784316110e-02
 37        -3.4739117687e-02
 38         4.5171073887e-03
 39        -1.3684088451e-15
 40        -4.4620748757e-03
 41        -1.3708165423e-03
 Sym= A
 Ene=        -5.8629231885e-01
 Spin= Alpha
 Occup=         2.0000000000e+00
  1         1.3516175154e-03
  2         1.5240325626e-01
  3         3.1963482045e-01
  4         5.5808970966e-16
  5         4.3838935437e-15
  6         5.4841003187e-01
  7         1.3901024660e-16
  8        -5.3461433288e-14
  9         3.2321088807e-01
 10        -1.4712492490e-02
 11        -6.4532270625e-17
 12         9.0741523943e-16
 13         4.3625857114e-03
 14         2.3254753228e-16
 15         7.6577658392e-02
 16        -2.1320386477e-16
 17        -1.4217495752e-13
 18         3.8796266804e-02
 19        -1.5847563222e-02
 20         2.9670933622e-16
 21         1.1504324043e-14
 22        -1.1344690738e-02
 23        -2.8858544753e-16
 24        -2.1243304378e-01
 25        -5.8032799197e-02
 26         1.5192505583e-17
 27         3.0923548358e-02
 28        -9.2797077239e-04
 29        -3.6167363759e-03
 30         6.6968036507e-16
 31         2.0420684684e-03
 32         1.3276899236e-02
 33        -2.1243304378e-01
 34        -5.8032799197e-02
 35         4.8641664169e-17
 36        -3.0923548358e-02
 37        -9.2797077240e-04
 38        -3.6167363762e-03
 39        -3.3461668583e-17
 40        -2.0420684685e-03
 41         1.3276899236e-02
 Sym= A
 Ene=        -5.0949939412e-01
 Spin= Alpha
 Occup=         2.0000000000e+00
  1         1.0024605407e-16
  2         6.1131278334e-17
  3        -7.2933208989e-16
  4         6.2855668274e-01
  5         3.2620452272e-16
  6        -5.3325438836e-16
  7         4.5015133863e-01
  8         1.6513241289e-15
  9         5.2930504780e-16
 10        -1.0824021848e-16
 11        -1.3932197893e-02
 12        -1.5150336270e-16
 13         8.5493990679e-18
 14         5.6710271821e-16
 15        -1.6075761372e-15
 16         6.8797405387e-02
 17         2.5450541841e-15
 18         1.1733464418e-15
 19         8.1192754293e-17
 20        -1.9242492423e-02
 21        -4.3792202667e-16
 22         3.3884507531e-16
 23        -3.0707025866e-15
 24         7.1177442961e-17
 25         2.0271500572e-15
 26         2.6225488161e-02
 27        -8.6745881544e-19
 28         1.6924563337e-16
 29        -2.0342394375e-15
 30         1.5919712187e-02
 31        -1.3804900577e-15
 32        -1.4690822473e-15
 33         9.6309019523e-16
 34         1.6180321938e-15
 35         2.6225488161e-02
 36         3.7908186334e-16
 37         2.8112767576e-16
 38         4.9663674581e-16
 39         1.5919712187e-02
 40        -2.3028606968e-15
 41         4.1181655064e-16
 Sym= A
 Ene=         3.5393519282e-02
 Spin= Alpha
 Occup=         0.0000000000e+00
  1         3.9804422967e-03
  2        -5.2755488823e-02
  3        -2.2154132956e-01
  4        -1.8391115316e-17
  5        -2.1550930931e-14
  6         5.9313004721e-02
  7        -1.6172711931e-16
  8        -4.0434900056e-13
  9         1.3179008946e-01
 10        -2.5950887038e-03
 11        -1.3459114724e-16
 12         5.0949926868e-15
 13         1.8434780320e-04
 14        -1.5390039498e-16
 15        -1.5599777582e+00
 16         7.1719575131e-16
 17        -1.1989227278e-12
 18         2.1415449348e-01
 19         1.6418618482e-03
 20        -1.9131458018e-16
 21         6.1792493655e-14
 22         1.0276065506e-02
 23        -3.8440020198e-17
 24         1.8871521412e-02
 25         4.7815446641e-01
 26        -4.7985626583e-17
 27         4.4786998869e-03
 28        -2.2523901081e-03
 29         8.3650885959e-01
 30         9.9410384681e-17
 31        -8.2804071363e-02
 32         7.7686659741e-02
 33         1.8871521412e-02
 34         4.7815446641e-01
 35        -3.1332690346e-16
 36        -4.4786998869e-03
 37        -2.2523901081e-03
 38         8.3650885958e-01
 39         2.6521448620e-16
 40         8.2804071362e-02
 41         7.7686659740e-02
 Sym= A
 Ene=         5.7959126256e-02
 Spin= Alpha
 Occup=         0.0000000000e+00
  1         1.0803387303e-13
  2         1.2531048634e-13
  3        -1.2582170837e-12
  4        -1.8535338289e-16
  5         6.6155348474e-02
  6         8.1402040395e-14
  7        -8.6773731456e-16
  8         1.3810254892e-01
  9         4.5627781962e-13
 10        -6.8699446476e-15
 11        -2.7372433650e-17
 12        -1.1449868464e-03
 13         1.6175930631e-14
 14        -6.4844742393e-17
 15        -2.7215955323e-12
 16        -9.1654991129e-16
 17         8.2863872971e-01
 18         6.1256669969e-13
 19        -7.7528038481e-15
 20         4.7607426014e-16
 21        -1.8618824456e-02
 22         8.8893278621e-14
 23         1.0106129542e-16
 24         9.3183143965e-04
 25        -5.5039306676e-01
 26         5.7463458420e-17
 27        -6.2417027688e-04
 28         4.1307907784e-03
 29        -2.9729290406e+00
 30         1.5745296845e-15
 31         1.0272879632e-01
 32        -1.2925370388e-01
 33        -9.3183143931e-04
 34         5.5039306676e-01
 35        -2.2920219723e-16
 36        -6.2417027672e-04
 37        -4.1307907783e-03
 38         2.9729290406e+00
 39         1.2263552840e-15
 40         1.0272879632e-01
 41         1.2925370388e-01
 Sym= A
 Ene=         1.7394108189e-01
 Spin= Alpha
 Occup=         0.0000000000e+00
  1         2.9954591456e-02
  2         8.1884958026e-02
  3        -3.6649659515e-01
  4        -2.9308638985e-15
  5        -2.3716729530e-14
  6        -1.7716007887e-01
  7        -3.0478230223e-15
  8         3.9487892750e-13
  9        -6.9530423773e-03
 10         1.1417628703e-02
 11         4.4537436612e-16
 12        -5.8374225657e-15
 13        -2.9828421010e-03
 14        -1.4197377053e-16
 15        -4.1070614008e+00
 16         2.4492813006e-14
 17         1.3131717608e-12
 18         1.9191183313e+00
 19        -3.9586399153e-02
 20        -1.1422925076e-15
 21        -7.8595753057e-14
 22         4.8156393279e-02
 23        -3.5514058073e-19
 24         1.4429581023e-02
 25         1.7733577628e+00
 26         5.0499671649e-17
 27        -3.3922266761e-02
 28         2.3786458856e-02
 29         6.2558559499e-01
 30        -5.1579475434e-15
 31        -3.2726191205e-01
 32         1.5382524505e-01
 33         1.4429581024e-02
 34         1.7733577628e+00
 35         3.0388045460e-16
 36         3.3922266761e-02
 37         2.3786458856e-02
 38         6.2558559499e-01
 39        -6.7457652561e-15
 40         3.2726191205e-01
 41         1.5382524505e-01
 Sym= A
 Ene=         1.9675278585e-01
 Spin= Alpha
 Occup=         0.0000000000e+00
  1        -3.5975643749e-16
  2        -1.0157534890e-15
  3         1.8828998444e-15
  4         1.7452629034e-01
  5        -9.4795026560e-16
  6        -3.2440609969e-15
  7         2.4586122123e-01
  8         2.7486668997e-15
  9        -5.8285012076e-15
 10         2.4152204929e-16
 11        -1.7215402393e-02
 12         1.4177889714e-16
 13        -5.7380351042e-17
 14        -3.4511640208e-15
 15        -2.0151441391e-14
 16        -1.4419197250e+00
 17         2.8389824551e-14
 18         3.1216812800e-14
 19        -9.2583877536e-16
 20         5.8456234387e-02
 21        -1.1071989215e-15
 22         2.6955149177e-17
 23         1.6462000975e-14
 24        -9.3491366804e-16
 25        -1.6815953544e-14
 26        -9.1945629265e-03
 27         4.1353783795e-16
 28        -1.1677140713e-16
 29        -1.6629678530e-14
 30         2.8280268763e-01
 31         3.0778970405e-15
 32        -7.4684488007e-15
 33         4.0894874386e-16
 34         3.3679368017e-14
 35        -9.1945629265e-03
 36         2.8694117482e-16
 37         7.7351589860e-17
 38         2.7605239310e-14
 39         2.8280268763e-01
 40         4.8649431398e-15
 41         1.3898210968e-15
 Sym= A
 Ene=         2.2266093372e-01
 Spin= Alpha
 Occup=         0.0000000000e+00
  1         2.3381148950e-02
  2         1.8407391047e-01
  3        -1.8069206581e-03
  4         1.4229094793e-15
  5         6.5712923315e-13
  6        -5.2469351330e-02
  7         3.0177651119e-15
  8        -1.1935031389e-12
  9         1.7141461978e-01
 10        -7.6714875683e-03
 11        -7.6137524381e-17
 12        -2.7758435075e-14
 13         3.5754154598e-03
 14        -8.5745386730e-17
 15        -2.8569917770e+00
 16        -9.1521957210e-15
 17        -1.1919377003e-11
 18        -5.0308261047e-01
 19         4.2531206202e-02
 20         4.8982919221e-16
 21         3.8454274470e-13
 22         3.1041700610e-02
 23        -1.2937437242e-17
 24        -4.1175806215e-02
 25         4.5532960586e-01
 26        -7.6011132823e-17
 27        -1.9658557458e-02
 28         1.1459886612e-02
 29         6.7660168788e-01
 30         5.7224024886e-16
 31        -4.2734354284e-01
 32         4.8312536512e-01
 33        -4.1175806216e-02
 34         4.5532960584e-01
 35         9.1449353656e-17
 36         1.9658557458e-02
 37         1.1459886612e-02
 38         6.7660168786e-01
 39        -6.8062363544e-16
 40         4.2734354283e-01
 41         4.8312536512e-01
 Sym= A
 Ene=         2.3157654524e-01
 Spin= Alpha
 Occup=         0.0000000000e+00
  1        -2.5056535173e-13
  2        -9.3548374683e-13
  3         1.9498120899e-12
  4         1.9204078140e-15
  5         1.6738516522e-01
  6         2.8203237882e-14
  7         5.9998239597e-15
  8        -2.5982622913e-01
  9        -1.5206683849e-12
 10         5.1084797932e-14
 11         1.4150343951e-16
 12        -8.7299991648e-03
 13        -3.0128004405e-14
 14         2.9958455111e-16
 15         1.6370476898e-11
 16        -6.5545872678e-15
 17        -3.1062479091e+00
 18         1.2552798288e-12
 19        -1.9825098415e-13
 20        -9.2512691438e-16
 21         9.8449685484e-02
 22        -2.7895280585e-13
 23        -1.3793855062e-16
 24         7.9706204510e-02
 25         2.6755460066e+00
 26         8.3817041618e-17
 27        -3.8440116830e-02
 28         2.2186935239e-02
 29         2.7055926001e+00
 30        -3.5564857045e-15
 31        -5.9244654685e-01
 32         5.5992306063e-01
 33        -7.9706204510e-02
 34        -2.6755460066e+00
 35        -3.2280744231e-16
 36        -3.8440116831e-02
 37        -2.2186935239e-02
 38        -2.7055926001e+00
 39        -4.4603436686e-15
 40        -5.9244654685e-01
 41        -5.5992306063e-01
 Sym= A
 Ene=         2.9039688693e-01
 Spin= Alpha
 Occup=         0.0000000000e+00
  1         1.6911598451e-14
  2        -2.1981710635e-15
  3        -3.9070088246e-13
  4        -6.3725168660e-16
  5         2.2341581995e-01
  6         8.2264126120e-14
  7        -2.1898233420e-15
  8         2.7072260849e-01
  9         2.9823442757e-13
 10        -1.0198479641e-14
 11        -2.8843990596e-16
 12         1.5983972366e-02
 13        -6.2493903345e-15
 14        -6.1654523550e-17
 15        -2.7987762390e-12
 16        -2.8767514937e-16
 17         8.9616809858e-01
 18         5.1312863825e-13
 19         2.5226379942e-14
 20         4.6600264626e-16
 21        -7.0862732194e-02
 22         5.7969366905e-14
 23        -2.0778900165e-17
 24        -1.2778185478e-01
 25        -9.6357816376e-01
 26        -8.0982804063e-17
 27         1.3550017771e-02
 28         2.4614161576e-04
 29         3.0691089737e-01
 30         9.1455344670e-16
 31        -4.3583468736e-01
 32         4.8388490241e-01
 33         1.2778185478e-01
 34         9.6357816376e-01
 35        -1.6454711631e-16
 36         1.3550017771e-02
 37        -2.4614161571e-04
 38        -3.0691089737e-01
 39         4.2538831993e-15
 40        -4.3583468736e-01
 41        -4.8388490241e-01
 Sym= A
 Ene=         3.3197392258e-01
 Spin= Alpha
 Occup=         0.0000000000e+00
  1         1.2576529995e-02
  2         6.3971282634e-03
  3        -2.2664500744e-01
  4         1.9260577383e-15
  5         1.9708774834e-14
  6         9.0429887159e-02
  7         7.5765067244e-15
  8         6.8375814970e-13
  9         2.3348195106e-01
 10        -2.4867317615e-02
 11         2.8959320068e-16
 12        -3.6648086174e-14
 13        -2.4977032243e-02
 14         2.6926441001e-16
 15        -4.3356543072e+00
 16         3.5470971166e-15
 17        -9.6411688505e-13
 18         5.9390446937e-01
 19         8.6664170581e-02
 20        -9.0595261397e-16
 21        -4.8831169277e-14
 22         1.0409991519e-01
 23        -1.3852896456e-15
 24         1.1176316749e-01
 25         2.3491159432e+00
 26        -1.0342046620e-16
 27        -9.1247168306e-03
 28         2.9488613658e-02
 29         2.5205618913e-01
 30        -4.3140441879e-16
 31         3.8057112770e-01
 32         4.6490302898e-01
 33         1.1176316749e-01
 34         2.3491159432e+00
 35         3.0750604430e-16
 36         9.1247168307e-03
 37         2.9488613658e-02
 38         2.5205618913e-01
 39        -1.9186114357e-14
 40        -3.8057112769e-01
 41         4.6490302898e-01
 Sym= A
 Ene=         3.8597744718e-01
 Spin= Alpha
 Occup=         0.0000000000e+00
  1        -1.5404616193e-16
  2        -1.3138240314e-15
  3        -9.3787776548e-15
  4         4.6639948645e-14
  5        -3.8846000932e-17
  6         1.9974284560e-15
  7         1.9446500491e-13
  8        -1.1674037051e-14
  9         1.0366465319e-14
 10         3.6937106347e-16
 11         6.2223132719e-15
 12         4.3705713142e-16
 13         4.1869257135e-16
 14         3.9376166555e-02
 15        -2.4091054129e-14
 16         2.4479066962e-13
 17        -6.3904029395e-15
 18         1.5300711816e-14
 19        -1.9130530582e-15
 20        -2.6103173946e-14
 21         2.1345819203e-15
 22        -6.3138742533e-16
 23        -1.3042519791e-01
 24         1.4589063196e-15
 25         6.5913812229e-14
 26         2.4825213236e-03
 27        -1.3584252454e-15
 28         7.9931698617e-16
 29         8.0305860510e-15
 30         1.1425767883e+00
 31        -3.5318141876e-14
 32        -1.4786445437e-15
 33        -2.8290525249e-16
 34        -3.2929032428e-14
 35        -2.4825213236e-03
 36         9.8656868810e-16
 37        -6.4414941207e-16
 38        -5.8957869909e-15
 39        -1.1425767883e+00
 40        -1.2305706090e-14
 41        -1.4471088843e-14
 Sym= A
 Ene=         4.0325017431e-01
 Spin= Alpha
 Occup=         0.0000000000e+00
  1         7.0675037391e-04
  2         1.4803027142e-02
  3         1.2094988520e-02
  4         2.7437574923e-15
  5         3.8242244988e-14
  6         1.8914182705e-01
  7         1.0762609957e-14
  8         6.4053395109e-13
  9         7.7811159729e-01
 10         1.9549639491e-02
 11         3.0293373924e-16
 12        -2.5656754634e-14
 13         1.0175249426e-02
 14        -5.1653031489e-16
 15        -4.4081501163e+00
 16         1.1461687677e-14
 17         5.6756831930e-13
 18         1.8245276695e+00
 19        -1.0471400620e-01
 20        -2.0246589287e-15
 21        -6.3847587228e-14
 22        -2.0947215727e-02
 23         1.2492872473e-15
 24         6.1883434465e-02
 25         2.3470313168e+00
 26        -5.1406129412e-16
 27        -4.9146877578e-02
 28         4.3223942817e-03
 29         2.8695524782e-01
 30        -2.9177047011e-14
 31        -3.4573303633e-01
 32        -6.9723879847e-01
 33         6.1883434465e-02
 34         2.3470313168e+00
 35         6.4982169684e-16
 36         4.9146877578e-02
 37         4.3223942817e-03
 38         2.8695524782e-01
 39        -3.4008925798e-15
 40         3.4573303633e-01
 41        -6.9723879847e-01
 Sym= A
 Ene=         4.3314531270e-01
 Spin= Alpha
 Occup=         0.0000000000e+00
  1         1.3425729592e-15
  2        -2.4354710723e-16
  3        -3.3197235787e-14
  4         1.5057191832e-01
  5        -1.9220815022e-15
  6        -2.0085641966e-15
  7         6.5538639403e-01
  8        -2.9242091466e-14
  9        -5.4999884952e-15
 10        -3.4441995694e-16
 11         2.3463960866e-02
 12         6.9288781558e-16
 13         5.2687825367e-16
 14        -8.6395405078e-15
 15         6.3131360043e-14
 16         1.1637056087e+00
 17         8.3043024603e-15
 18        -2.8302937169e-14
 19         1.2664359180e-15
 20        -7.2742529644e-02
 21         3.0733760816e-15
 22         3.3782261893e-16
 23         1.6057576970e-14
 24         1.4914611024e-15
 25         9.3126458496e-14
 26        -1.6868064201e-03
 27        -8.3314822132e-16
 28         2.5351619609e-15
 29        -2.3846130904e-14
 30        -1.1965589503e+00
 31        -7.2795124977e-14
 32         3.1054440572e-14
 33        -3.0882877112e-15
 34        -1.3883860222e-13
 35        -1.6868064201e-03
 36        -3.3956991772e-16
 37        -1.4363513860e-15
 38         1.3709617592e-14
 39        -1.1965589503e+00
 40        -5.0018356241e-14
 41         2.2821721151e-15
 Sym= A
 Ene=         5.3950451429e-01
 Spin= Alpha
 Occup=         0.0000000000e+00
  1         7.1684919257e-14
  2         4.6028515863e-14
  3        -1.3235682293e-12
  4        -1.3519172164e-15
  5         8.0220645556e-02
  6         1.9004117318e-14
  7        -5.2053375211e-15
  8         1.3196001358e-01
  9         1.5961420973e-13
 10        -5.7342328419e-15
 11        -1.7304741250e-16
 12        -1.7723770949e-02
 13         1.0966303485e-14
 14        -1.3141773527e-16
 15        -7.6355203841e-13
 16        -9.3455482554e-15
 17         1.9280775991e+00
 18        -2.6657556839e-13
 19        -5.5187511007e-15
 20         7.3282821921e-16
 21         4.1768896349e-02
 22         3.8176323196e-14
 23         1.0510360897e-15
 24         3.2465867461e-02
 25         1.5116470593e+00
 26        -9.3082521338e-17
 27         2.2763459792e-02
 28         2.3540055339e-02
 29        -7.6095186802e-01
 30         6.3415701696e-15
 31        -2.3441311928e+00
 32        -1.0435432317e+00
 33        -3.2465867461e-02
 34        -1.5116470593e+00
 35         5.9751554724e-16
 36         2.2763459792e-02
 37        -2.3540055339e-02
 38         7.6095186802e-01
 39         1.3643237640e-14
 40        -2.3441311928e+00
 41         1.0435432317e+00
 Sym= A
 Ene=         6.4838222964e-01
 Spin= Alpha
 Occup=         0.0000000000e+00
  1         1.0411209184e-01
  2        -3.1758079238e-02
  3        -2.8126614909e+00
  4        -2.3727796612e-15
  5         6.1128613321e-12
  6         1.9900839388e-01
  7        -6.2928263428e-15
  8         4.3084504471e-11
  9         6.0362049914e-01
 10        -9.4086408445e-03
 11        -2.1944492836e-16
 12        -6.4579457398e-13
 13         8.5955687480e-03
 14        -3.9915307533e-16
 15        -5.8903318341e+00
 16        -2.1735013038e-14
 17         5.8075326252e-11
 18         6.9850995212e-01
 19         2.1372596673e-03
 20        -2.4250771307e-15
 21        -2.9014975293e-12
 22        -4.8106225157e-02
 23        -1.1904108045e-15
 24         1.4791105948e-01
 25         3.4853438565e+00
 26         2.5545673138e-16
 27         6.2036976655e-03
 28         2.2754173664e-03
 29         5.5986362013e-01
 30         1.0696078582e-14
 31        -1.3315076514e+00
 32         1.1650454780e+00
 33         1.4791105949e-01
 34         3.4853438569e+00
 35         2.5491440800e-15
 36        -6.2036976641e-03
 37         2.2754173687e-03
 38         5.5986362020e-01
 39         2.1111553209e-14
 40         1.3315076515e+00
 41         1.1650454781e+00
 Sym= A
 Ene=         6.5828752236e-01
 Spin= Alpha
 Occup=         0.0000000000e+00
  1        -2.1806433862e-12
  2         1.3304338306e-12
  3         6.3862339377e-11
  4         4.7048146781e-15
  5         2.6924547434e-01
  6        -4.9332466201e-12
  7         7.8721502051e-15
  8         1.7968279646e+00
  9        -1.3582678401e-11
 10         2.1285826846e-13
 11         3.0203076031e-16
 12        -2.6034225885e-02
 13        -1.2856158041e-13
 14         4.0113832959e-17
 15         1.3594156498e-10
 16         2.1096839780e-14
 17         2.5131866673e+00
 18        -1.6151333623e-11
 19        -3.8739509562e-14
 20         6.9109893924e-15
 21        -1.0794351457e-01
 22         1.5635343545e-12
 23        -2.3845887571e-17
 24        -1.1278237284e-01
 25        -8.5074678853e+00
 26        -1.2898860249e-15
 27         2.5892156273e-02
 28        -4.4369713426e-02
 29        -1.4239856009e+00
 30        -1.0586296998e-14
 31         3.2108482998e+00
 32        -1.6950728520e+00
 33         1.1278237283e-01
 34         8.5074678852e+00
 35         1.6740981521e-15
 36         2.5892156274e-02
 37         4.4369713426e-02
 38         1.4239856008e+00
 39        -2.8917069201e-14
 40         3.2108482997e+00
 41         1.6950728520e+00
 Sym= A
 Ene=         8.1059887159e-01
 Spin= Alpha
 Occup=         0.0000000000e+00
  1        -4.6734384847e-14
  2        -1.8968249212e-13
  3        -5.8164971095e-14
  4        -1.3887187261e-15
  5         2.6607228966e-01
  6         1.7175053151e-13
  7         1.2310343148e-15
  8        -3.7241043243e-01
  9        -6.3142503425e-14
 10        -1.3830670674e-15
 11         1.7148003811e-16
 12         5.7149914242e-02
 13        -2.7227504807e-14
 14         1.9436876474e-16
 15         2.3695294309e-13
 16        -3.2906677441e-15
 17        -1.1910579039e+00
 18        -2.3235387620e-13
 19         1.5100705467e-14
 20        -4.1439643342e-15
 21         7.0914687028e-01
 22        -3.2786349443e-13
 23        -7.4781231045e-16
 24        -4.2082933444e-01
 25         2.8602323358e+00
 26         7.9349069697e-17
 27        -1.2828458633e-01
 28         1.5887156717e-01
 29         1.9556221731e-01
 30        -1.6986281757e-15
 31        -4.6948664516e-01
 32        -6.4206046928e-02
 33         4.2082933444e-01
 34        -2.8602323358e+00
 35        -1.6679606949e-15
 36        -1.2828458633e-01
 37        -1.5887156717e-01
 38        -1.9556221731e-01
 39         5.4952922036e-15
 40        -4.6948664516e-01
 41         6.4206046929e-02
 Sym= A
 Ene=         9.3088446029e-01
 Spin= Alpha
 Occup=         0.0000000000e+00
  1         8.5269799173e-02
  2         1.9672253097e-01
  3        -1.0482232664e+00
  4        -5.1102188103e-16
  5        -2.3705745465e-13
  6        -8.1810291857e-02
  7         7.9877941246e-16
  8        -6.1133545635e-13
  9         2.6331986669e-01
 10        -1.3881618008e-04
 11         1.5974858899e-16
 12         1.8751865524e-14
 13         3.8340388295e-02
 14        -1.6210672958e-16
 15        -4.7127074762e+00
 16        -2.2248936652e-15
 17        -2.5899404246e-12
 18         1.2182728274e+00
 19        -1.1305848445e-01
 20        -1.1823086822e-14
 21         3.7237865654e-13
 22         7.4538569846e-01
 23        -5.7444395958e-15
 24        -4.9202813919e-01
 25         3.2338013234e+00
 26         3.3555206677e-16
 27        -1.8077117364e-01
 28         9.1713416144e-02
 29         2.0163692237e-01
 30         1.1552827587e-15
 31        -1.5980326200e-01
 32         2.9886163736e-01
 33        -4.9202813919e-01
 34         3.2338013234e+00
 35         3.0588445884e-15
 36         1.8077117364e-01
 37         9.1713416144e-02
 38         2.0163692236e-01
 39        -2.7196326332e-15
 40         1.5980326200e-01
 41         2.9886163736e-01
 Sym= A
 Ene=         1.1014012312e+00
 Spin= Alpha
 Occup=         0.0000000000e+00
  1         2.4485036888e-16
  2         2.9354074573e-16
  3        -1.1241107401e-14
  4         1.9143829660e-01
  5         5.4197139344e-15
  6        -1.0500307359e-14
  7         3.2237826012e-02
  8         2.7709617367e-15
  9         8.0364130815e-15
 10        -8.4317972730e-16
 11         2.1022695724e-02
 12         5.8191343742e-17
 13         1.1302068426e-15
 14         2.6905410615e-15
 15         4.9075233894e-14
 16         7.2714065995e-01
 17         3.6010862099e-14
 18        -3.5539633189e-14
 19         3.7516764180e-14
 20        -1.1239470287e+00
 21        -4.5770092994e-15
 22        -1.3884770510e-14
 23        -1.1848569982e-13
 24         1.3144336101e-15
 25        -9.9192003097e-14
 26         1.6795882432e-02
 27        -6.4178426423e-15
 28         2.0774225113e-15
 29        -3.2291068437e-14
 30        -5.8327432449e-01
 31         3.2570125561e-14
 32         2.6444010512e-15