[Molden Format]
[Atoms] (AU)
O    1    8           0.0000000000         0.0000000000         0.2225908403
H    2    1           0.0000000000         1.4275992707        -0.8903652510
H    3    1           0.0000000000        -1.4275992707        -0.8903652510
[GTO]
  1 0
 s    8  1.00
    11720.0000000000         0.0007100000
     1759.0000000000         0.0054700000
      400.8000000000         0.0278370000
      113.7000000000         0.1048000000
       37.0300000000         0.2830620000
       13.2700000000         0.4487190000
        5.0250000000         0.2709520000
        1.0130000000         0.0154580000
 s    8  1.00
    11720.0000000000        -0.0001600000
     1759.0000000000        -0.0012630000
      400.8000000000        -0.0062670000
      113.7000000000        -0.0257160000
       37.0300000000        -0.0709240000
       13.2700000000        -0.1654110000
        5.0250000000        -0.1169550000
        1.0130000000         0.5573680000
 s    1  1.00
        0.3023000000         1.0000000000
 p    3  1.00
       17.7000000000         0.0430180000
        3.8540000000         0.2289130000
        1.0460000000         0.5087280000
 p    1  1.00
        0.2753000000         1.0000000000
 d    1  1.00
        1.1850000000         1.0000000000
 s    1  1.00
        0.0789600000         1.0000000000
 p    1  1.00
        0.0685600000         1.0000000000
 d    1  1.00
        0.3320000000         1.0000000000

  2 0
 s    3  1.00
       13.0100000000         0.0196850000
        1.9620000000         0.1379770000
        0.4446000000         0.4781480000
 s    1  1.00
        0.1220000000         1.0000000000
 p    1  1.00
        0.7270000000         1.0000000000
 s    1  1.00
        0.0297400000         1.0000000000
 p    1  1.00
        0.1410000000         1.0000000000

  3 0
 s    3  1.00
       13.0100000000         0.0196850000
        1.9620000000         0.1379770000
        0.4446000000         0.4781480000
 s    1  1.00
        0.1220000000         1.0000000000
 p    1  1.00
        0.7270000000         1.0000000000
 s    1  1.00
        0.0297400000         1.0000000000
 p    1  1.00
        0.1410000000         1.0000000000

[5D7F]
[9G]

[MO]
 Sym= A
 Ene=        -2.0534145299e+01
 Spin= Alpha
 Occup=         1.0000000000e+00
  1         1.0014429233e+00
  2         2.1475575872e-03
  3        -7.2670156036e-03
  4        -1.8346834664e-16
  5        -2.7566098680e-16
  6        -1.4710895284e-03
  7         2.5110603592e-16
  8        -9.7246307129e-16
  9         1.4468607206e-03
 10         2.9297970993e-05
 11         1.9900025609e-16
 12        -5.0497485245e-16
 13        -9.6863905485e-05
 14        -4.8574966647e-18
 15        -4.3737628407e-03
 16         1.7085397386e-16
 17        -9.2000146272e-15
 18         6.6095828490e-04
 19         1.8757271739e-05
 20        -4.6890400105e-17
 21         1.3775698214e-15
 22         2.7573984232e-04
 23         4.3897058616e-16
 24         3.5424632254e-04
 25         3.5262420549e-03
 26         1.3987308409e-17
 27         3.1969432391e-04
 28        -2.5856573652e-04
 29         3.0566624611e-04
 30        -6.6209242410e-16
 31        -1.1570724128e-03
 32         1.0131571010e-03
 33         3.5424632254e-04
 34         3.5262420549e-03
 35         2.7443455878e-16
 36        -3.1969432392e-04
 37        -2.5856573652e-04
 38         3.0566624609e-04
 39         2.7296328660e-17
 40         1.1570724128e-03
 41         1.0131571010e-03
 Sym= A
 Ene=        -1.3196317436e+00
 Spin= Alpha
 Occup=         1.0000000000e+00
  1         4.9813330114e-03
  2        -4.5172968825e-01
  3        -3.7677554276e-01
  4         1.7584573808e-16
  5         1.0536539698e-16
  6         8.3797674862e-02
  7        -2.2280523687e-16
  8        -3.8080034120e-14
  9        -2.1380794483e-02
 10        -3.2645985851e-03
 11        -1.7401949166e-17
 12         5.4743535867e-16
 13         6.6966776490e-03
 14        -5.4102128136e-18
 15        -6.3400431634e-02
 16        -6.8572635560e-16
 17        -8.5375457324e-14
 18         1.2040678103e-02
 19         6.4587472344e-03
 20         2.1381606786e-16
 21         2.1672626489e-15
 22        -2.0130750787e-02
 23         1.8682858354e-16
 24        -2.0287997592e-01
 25         2.9060546043e-02
 26        -1.4377626159e-16
 27         3.6964662321e-02
 28        -2.2731126870e-02
 29         2.1522304473e-03
 30         1.0297299371e-16
 31        -5.7942454050e-03
 32         8.2514152896e-03
 33        -2.0287997592e-01
 34         2.9060546043e-02
 35        -2.2199688246e-16
 36        -3.6964662321e-02
 37        -2.2731126870e-02
 38         2.1522304471e-03
 39         1.2521088026e-15
 40         5.7942454049e-03
 41         8.2514152895e-03
 Sym= A
 Ene=        -6.7425030128e-01
 Spin= Alpha
 Occup=         1.0000000000e+00
  1        -4.7791429422e-15
  2        -7.6468512578e-15
  3         5.1958712761e-14
  4        -7.4981103912e-16
  5         4.9813644223e-01
  6         1.0505802588e-15
  7        -2.9267595518e-16
  8         1.9175737514e-01
  9        -7.3210197711e-15
 10        -1.0560087264e-16
 11        -1.5330804891e-16
 12        -2.7811400182e-02
 13         7.4921534369e-17
 14        -3.9808043663e-16
 15         1.0614006101e-13
 16         2.7661325986e-16
 17         2.6539654121e-02
 18        -2.6382915326e-14
 19        -8.6990848877e-16
 20        -3.0047679454e-17
 21         3.4462427465e-02
 22         6.4657615551e-17
 23         1.1208504406e-16
 24         3.4489214533e-01
 25         8.8918760962e-02
 26        -4.7387050750e-17
 27        -2.5494997314e-02
 28         3.5167443375e-02
 29         5.4520305130e-03
 30         2.2552125640e-16
 31        -4.0301562321e-03
 32         2.0354187547e-03
 33        -3.4489214533e-01
 34        -8.8918760962e-02
 35        -1.2631869248e-17
 36        -2.5494997314e-02
 37        -3.5167443375e-02
 38        -5.4520305130e-03
 39        -4.5097299250e-16
 40        -4.0301562322e-03
 41        -2.0354187547e-03
 Sym= A
 Ene=        -5.5008641658e-01
 Spin= Alpha
 Occup=         1.0000000000e+00
  1        -8.1554105234e-04
  2         1.4167193918e-01
  3         3.0402557610e-01
  4        -1.1725144619e-15
  5        -1.1321203256e-15
  6         5.4847539527e-01
  7        -1.0196609834e-15
  8        -5.0870554806e-14
  9         3.2434274957e-01
 10        -1.3918455173e-02
 11        -9.3303736648e-18
 12         8.6069032081e-16
 13         4.2558784114e-03
 14        -1.1012422685e-16
 15         8.3673171985e-02
 16        -3.0902061659e-16
 17        -1.9676377047e-14
 18         5.9747534189e-02
 19        -1.0742963382e-02
 20         3.3381681452e-16
 21         9.0981910086e-15
 22        -1.1248131852e-02
 23         1.5543759142e-16
 24        -2.0710376376e-01
 25        -4.8480366618e-02
 26        -8.5642284030e-18
 27         3.0889618258e-02
 28        -1.6610203595e-03
 29        -5.3101696553e-03
 30         4.0687020265e-16
 31        -1.3089802145e-03
 32         1.3978969596e-02
 33        -2.0710376376e-01
 34        -4.8480366618e-02
 35         3.5366861941e-17
 36        -3.0889618258e-02
 37        -1.6610203595e-03
 38        -5.3101696552e-03
 39        -1.0818876811e-16
 40         1.3089802144e-03
 41         1.3978969596e-02
 Sym= A
 Ene=        -4.6827657751e-01
 Spin= Alpha
 Occup=         1.0000000000e+00
  1         2.2676600471e-18
  2         3.3155561933e-16
  3        -1.9693789323e-16
  4         6.2053775234e-01
  5         1.6145979810e-16
  6         8.8032177926e-16
  7         4.4765980697e-01
  8         6.0033741965e-16
  9         1.3490688277e-15
 10        -5.2396129286e-17
 11        -1.3228584617e-02
 12        -1.9970904345e-17
 13         2.9672052807e-17
 14        -4.2550469399e-16
 15        -8.2497003408e-16
 16         9.4521422188e-02
 17         2.5594665150e-15
 18         1.1989808704e-15
 19        -1.5571006631e-16
 20        -1.4453838893e-02
 21        -1.7128958571e-16
 22         1.3570059136e-16
 23         3.9472369814e-16
 24         1.7475596619e-16
 25         2.7536173099e-15
 26         2.5492974558e-02
 27        -2.3023948516e-17
 28         1.7571441526e-16
 29        -2.0713341948e-15
 30         1.4248548455e-02
 31        -2.2494537767e-15
 32        -1.1797754408e-15
 33        -2.0703473687e-16
 34        -1.8397681545e-16
 35         2.5492974558e-02
 36         1.5929161690e-16
 37         9.4413357078e-17
 38         1.2932546142e-15
 39         1.4248548455e-02
 40        -2.4051128992e-15
 41         6.5068220208e-16
 Sym= A
 Ene=        -8.8244396321e-02
 Spin= Alpha
 Occup=         1.0000000000e+00
  1         3.1159527069e-03
  2         8.7801185445e-02
  3         1.7340403756e-01
  4         1.0223130486e-17
  5         9.4677748457e-15
  6        -8.8362071687e-02
  7         7.2779777100e-17
  8         1.5309516872e-14
  9        -1.0303624502e-01
 10         2.7952184831e-03
 11         7.5158001522e-17
 12         1.2602137957e-15
 13        -6.1256917684e-04
 14        -2.8835701447e-18
 15         5.3065940394e-01
 16         1.6544781311e-15
 17         2.6304851629e-13
 18        -2.1139645605e-03
 19         1.0322310686e-03
 20        -2.1942273214e-16
 21        -1.8204648635e-15
 22         2.6174095153e-03
 23         9.2465770403e-17
 24        -2.0991226637e-02
 25        -1.4111364645e-01
 26         1.7263907641e-17
 27        -1.1186478436e-02
 28         7.0183662918e-03
 29        -6.3894577144e-01
 30        -1.8519434970e-15
 31        -1.3186281980e-02
 32         1.3933593679e-02
 33        -2.0991226637e-02
 34        -1.4111364645e-01
 35         7.7473799466e-17
 36         1.1186478436e-02
 37         7.0183662918e-03
 38        -6.3894577144e-01
 39         5.6235615818e-16
 40         1.3186281980e-02
 41         1.3933593679e-02
 Sym= A
 Ene=         6.9889678611e-02
 Spin= Alpha
 Occup=         0.0000000000e+00
  1        -1.4928640721e-13
  2        -2.9835944718e-13
  3         1.5465469800e-12
  4         2.6661429708e-16
  5         8.8023373160e-02
  6         4.1719666851e-14
  7        -1.4978522574e-16
  8         1.2809061627e-01
  9        -5.3581768676e-13
 10         4.9524012249e-15
 11        -1.7627401874e-16
 12        -2.5075300052e-03
 13        -1.8433971209e-14
 14         3.2948421057e-17
 15         5.1579405145e-12
 16        -2.3752081395e-15
 17         5.8165094530e-01
 18        -1.0960914445e-12
 19         6.0258948521e-15
 20         3.7360565722e-16
 21        -1.2147710886e-02
 22        -9.6888110930e-14
 23        -1.7558760586e-16
 24         1.1080118840e-02
 25        -3.5003878754e-01
 26        -8.8626480623e-17
 27        -3.3896541505e-03
 28         5.5621658295e-03
 29        -2.7250481140e+00
 30         1.9400813557e-15
 31         4.5105161374e-02
 32        -7.6553023811e-02
 33        -1.1080118840e-02
 34         3.5003878754e-01
 35        -2.4782945581e-18
 36        -3.3896541507e-03
 37        -5.5621658296e-03
 38         2.7250481140e+00
 39         7.1689427418e-16
 40         4.5105161373e-02
 41         7.6553023810e-02
 Sym= A
 Ene=         1.7444168277e-01
 Spin= Alpha
 Occup=         0.0000000000e+00
  1         2.5667754013e-02
  2         5.0634563358e-02
  3        -3.4573859774e-01
  4        -4.5524538900e-15
  5         3.6130845614e-14
  6        -1.7177155000e-01
  7        -5.5969191546e-15
  8         1.1832869944e-12
  9        -3.8630943306e-02
 10         1.2977309112e-02
 11         6.5384515058e-16
 12        -2.1169148557e-14
 13        -2.6458323031e-03
 14        -2.3773540348e-16
 15        -3.6578140270e+00
 16         3.4941125475e-14
 17         2.0325455184e-12
 18         1.9345243100e+00
 19        -4.6096239335e-02
 20        -1.8887659108e-15
 21        -1.9317990606e-13
 22         4.0529464291e-02
 23         2.8914393176e-16
 24         1.6565604215e-02
 25         1.6132028516e+00
 26         2.3910800278e-16
 27        -2.9539333980e-02
 28         2.0704102217e-02
 29         6.2559390796e-01
 30        -8.6858210080e-15
 31        -2.7494294426e-01
 32         7.7785268569e-02
 33         1.6565604215e-02
 34         1.6132028516e+00
 35         5.9750500993e-16
 36         2.9539333980e-02
 37         2.0704102217e-02
 38         6.2559390796e-01
 39        -7.2015474489e-15
 40         2.7494294426e-01
 41         7.7785268570e-02
 Sym= A
 Ene=         1.9440605138e-01
 Spin= Alpha
 Occup=         0.0000000000e+00
  1        -4.3106424624e-16
  2        -1.7479260473e-15
  3         3.3033487541e-15
  4         1.8610212523e-01
  5        -7.5468058315e-16
  6        -4.5275630869e-15
  7         2.6002236576e-01
  8         1.6500881673e-15
  9        -9.3950759006e-15
 10         4.5556177251e-16
 11        -1.7421028102e-02
 12         7.1543736579e-17
 13        -1.8740072479e-16
 14        -4.9347114322e-16
 15        -4.4093891241e-15
 16        -1.4403442930e+00
 17         1.2828520861e-14
 18         4.1046474932e-14
 19        -1.4889984216e-15
 20         5.6628900318e-02
 21        -5.9976006703e-16
 22        -1.9590986746e-16
 23         3.4111570943e-15
 24        -5.5860466352e-16
 25        -8.9870197685e-15
 26        -9.0780867281e-03
 27         3.8115212572e-16
 28        -2.0125351890e-16
 29        -5.9173312807e-15
 30         2.8230579568e-01
 31         4.5758616449e-15
 32        -9.1923198858e-15
 33         2.8706924132e-16
 34         1.7652378143e-14
 35        -9.0780867281e-03
 36        -7.2315735295e-17
 37        -8.5051378928e-17
 38         1.1315853519e-14
 39         2.8230579568e-01
 40         2.1173534359e-15
 41        -3.9871650305e-15
 Sym= A
 Ene=         2.3011206717e-01
 Spin= Alpha
 Occup=         0.0000000000e+00
  1         2.6820306408e-02
  2         1.8419084333e-01
  3        -6.4078854050e-02
  4         2.8419071260e-15
  5         5.2570452218e-14
  6        -4.1739520629e-02
  7         5.8504410121e-15
  8         1.0896331103e-12
  9         2.3125360739e-01
 10        -7.5536578943e-03
 11        -1.7624153176e-16
 12        -1.9279783278e-14
 13         1.9654749592e-03
 14        -2.0852774628e-17
 15        -3.8274754943e+00
 16        -1.3640371412e-14
 17         1.8073616227e-12
 18        -1.7834355288e-01
 19         3.6897661998e-02
 20         1.1965765151e-16
 21        -1.6137807462e-13
 22         4.3529043611e-02
 23         5.6287530323e-18
 24        -3.3395594860e-02
 25         9.0006383767e-01
 26        -1.8879425058e-16
 27        -2.3698966087e-02
 28         1.4650590577e-02
 29         8.7274210635e-01
 30         2.0558919270e-16
 31        -4.4350328850e-01
 32         5.0190742448e-01
 33        -3.3395594859e-02
 34         9.0006383768e-01
 35         1.8578336132e-16
 36         2.3698966087e-02
 37         1.4650590577e-02
 38         8.7274210635e-01
 39        -1.9884258732e-15
 40         4.4350328850e-01
 41         5.0190742448e-01
 Sym= A
 Ene=         2.4539942753e-01
 Spin= Alpha
 Occup=         0.0000000000e+00
  1         6.6691045064e-14
  2         1.6795633908e-13
  3        -4.1479200338e-13
  4         9.8274400931e-16
  5         1.4562078623e-01
  6        -1.2617152600e-13
  7         4.7347619194e-15
  8        -2.6813091909e-01
  9        -1.4979457211e-13
 10         2.1260641894e-15
 11         1.8015917761e-16
 12        -1.0137326842e-02
 13         1.6007347973e-14
 14         7.5125455163e-17
 15         1.0183925803e-12
 16        -1.2875490379e-15
 17        -3.2189470463e+00
 18        -3.2658140666e-13
 19         8.3111682233e-16
 20        -1.2586114822e-15
 21         1.0372541100e-01
 22        -2.3655831563e-14
 23        -3.6897883630e-16
 24         8.9918064724e-02
 25         2.6800090308e+00
 26         9.1340125117e-17
 27        -3.9611577797e-02
 28         2.1849858729e-02
 29         2.8946689988e+00
 30        -4.3477266462e-15
 31        -5.0086956908e-01
 32         5.0660775826e-01
 33        -8.9918064724e-02
 34        -2.6800090308e+00
 35        -7.7258454520e-17
 36        -3.9611577797e-02
 37        -2.1849858729e-02
 38        -2.8946689988e+00
 39        -4.4891486122e-15
 40        -5.0086956908e-01
 41        -5.0660775826e-01
 Sym= A
 Ene=         3.1760716085e-01
 Spin= Alpha
 Occup=         0.0000000000e+00
  1         2.7753900395e-14
  2        -1.9126222069e-14
  3        -6.1349008803e-13
  4         7.3036428529e-16
  5         2.3249915020e-01
  6         1.5761294549e-13
  7         1.8108804274e-15
  8         2.4073553367e-01
  9         4.8779578646e-13
 10        -1.3065776945e-14
 11         2.6084218274e-16
 12         1.3630469668e-02
 13        -8.4118527454e-15
 14         1.4607923145e-16
 15        -3.9444533023e-12
 16         2.5765717991e-15
 17         6.1508578071e-01
 18         9.0695904252e-13
 19         2.2290004266e-14
 20        -4.9418934538e-16
 21        -6.1012571432e-02
 22         7.7826937442e-14
 23        -6.4405206079e-16
 24        -1.1246944470e-01
 25        -6.5774617840e-01
 26         6.2345409635e-17
 27         1.1602569748e-02
 28        -8.1897389358e-04
 29         6.2223633704e-01
 30         1.6481747680e-15
 31        -5.4293238755e-01
 32         5.2661348076e-01
 33         1.1246944470e-01
 34         6.5774617841e-01
 35         4.2893745514e-17
 36         1.1602569748e-02
 37         8.1897389364e-04
 38        -6.2223633704e-01
 39        -7.2772353311e-15
 40        -5.4293238755e-01
 41        -5.2661348076e-01
 Sym= A
 Ene=         3.5362261460e-01
 Spin= Alpha
 Occup=         0.0000000000e+00
  1         1.2634129075e-02
  2        -3.1086653953e-03
  3        -2.7070748107e-01
  4         2.5008760942e-15
  5        -5.2658899180e-14
  6         9.9599377900e-02
  7         9.6181113789e-15
  8         1.6643017940e-12
  9         2.5890423243e-01
 10        -2.3505067034e-02
 11         2.2467637061e-16
 12        -5.7420808968e-14
 13        -2.3506889944e-02
 14         1.1633121338e-16
 15        -4.4895017565e+00
 16         6.5921939684e-15
 17         3.1775357511e-13
 18         7.5495225298e-01
 19         8.0624840989e-02
 20        -1.2257882189e-15
 21        -1.7777092678e-13
 22         1.0185688751e-01
 23        -8.3591407399e-16
 24         1.0984558802e-01
 25         2.5041233533e+00
 26        -4.3575600373e-17
 27        -1.4172632440e-02
 28         2.9923839036e-02
 29         2.4229569915e-01
 30        -6.0055970316e-15
 31         3.7308147594e-01
 32         4.2452044904e-01
 33         1.0984558802e-01
 34         2.5041233533e+00
 35         5.3164350405e-16
 36         1.4172632440e-02
 37         2.9923839037e-02
 38         2.4229569916e-01
 39        -2.0485206179e-14
 40        -3.7308147593e-01
 41         4.2452044904e-01
 Sym= A
 Ene=         4.1100614603e-01
 Spin= Alpha
 Occup=         0.0000000000e+00
  1         1.3065323064e-16
  2         2.3839254214e-16
  3        -4.3066501436e-15
  4        -1.3933819862e-14
  5        -1.4111449649e-15
  6         8.5455230680e-15
  7        -1.6356547632e-13
  8        -1.2514846236e-14
  9         3.9757077450e-14
 10         1.3075243377e-15
 11        -6.1519553242e-15
 12         1.8781066132e-16
 13         9.2696685382e-16
 14         3.8992697733e-02
 15        -1.8805179156e-13
 16        -2.8259720034e-13
 17        -1.7356257157e-14
 18         9.0605565972e-14
 19        -6.6053060524e-15
 20         2.7456341797e-14
 21         1.4496940777e-15
 22        -1.2919808253e-15
 23        -1.2906782329e-01
 24         3.4029549697e-15
 25         1.5117201582e-13
 26        -1.4006259562e-03
 27        -3.3334456069e-15
 28         1.3250126371e-15
 29         1.7650169952e-14
 30         1.1442008871e+00
 31        -3.4507244979e-14
 32        -3.2223527200e-14
 33         9.6120846060e-16
 34         5.9598762547e-14
 35         1.4006259563e-03
 36         2.8391405487e-15
 37        -7.1711349351e-17
 38         2.0453255362e-15
 39        -1.1442008871e+00
 40         1.0583579205e-14
 41        -4.6483794973e-14
 Sym= A
 Ene=         4.2801361473e-01
 Spin= Alpha
 Occup=         0.0000000000e+00
  1         4.3483440543e-03
  2        -5.5397307173e-03
  3        -6.9996396640e-02
  4        -5.5367615767e-15
  5        -4.6754614815e-14
  6        -1.8267040964e-01
  7        -2.3063854310e-14
  8        -1.8210374612e-12
  9        -7.5652650809e-01
 10        -2.1095652684e-02
 11        -6.1497547667e-16
 12         4.6169061899e-14
 13        -1.1058835001e-02
 14         2.1152171735e-15
 15         4.0662131683e+00
 16        -3.2541084622e-14
 17        -9.9514466003e-13
 18        -1.8046467420e+00
 19         1.1218877760e-01
 20         3.4293029720e-15
 21         2.3304467111e-13
 22         2.6913520568e-02
 23        -5.9125516337e-15
 24        -6.0127932356e-02
 25        -2.1847952254e+00
 26        -8.0423177957e-17
 27         4.6341848249e-02
 28        -4.5177564947e-03
 29        -2.4756063286e-01
 30         9.7286554870e-14
 31         3.3164535875e-01
 32         7.4689452573e-01
 33        -6.0127932357e-02
 34        -2.1847952254e+00
 35        -3.6629866883e-16
 36        -4.6341848250e-02
 37        -4.5177564949e-03
 38        -2.4756063286e-01
 39        -2.0671114750e-14
 40        -3.3164535875e-01
 41         7.4689452573e-01
 Sym= A
 Ene=         4.5973246710e-01
 Spin= Alpha
 Occup=         0.0000000000e+00
  1         1.9564096530e-15
  2         5.6795353527e-16
  3        -3.5847583455e-14
  4         1.4782955613e-01
  5        -2.8859419745e-15
  6        -5.9682763781e-15
  7         6.6125156053e-01
  8        -3.2301695507e-14
  9        -2.0185807596e-14
 10        -5.7912920123e-16
 11         2.3399195689e-02
 12         6.4905377288e-16
 13         2.8960432066e-16
 14         6.7002092591e-15
 15         1.4866992714e-13
 16         1.1651086680e+00
 17        -8.1536928858e-15
 18        -6.2467541245e-14
 19         2.8220820724e-15
 20        -7.4443565567e-02
 21         3.3787567582e-15
 22         1.7481094393e-15
 23        -1.4651815908e-14
 24        -6.2535543705e-16
 25         5.9969684446e-14
 26         7.5517090939e-04
 27        -3.7077602802e-16
 28         2.4843553882e-15
 29        -2.5254086197e-14
 30        -1.1998262407e+00
 31        -6.0797124293e-14
 32         4.6995833937e-14
 33        -4.9675806409e-15
 34        -1.9356647670e-13
 35         7.5517090938e-04
 36        -1.2299418052e-15
 37        -1.4201159548e-15
 38         2.6629202488e-15
 39        -1.1998262407e+00
 40        -4.9055400284e-14
 41         1.1611504761e-14
 Sym= A
 Ene=         5.7287644369e-01
 Spin= Alpha
 Occup=         0.0000000000e+00
  1        -1.9429367759e-13
  2        -1.7429376092e-13
  3         3.1879964454e-12
  4        -6.5037087891e-16
  5         8.0118605359e-02
  6        -7.2319775725e-14
  7        -2.5262539186e-15
  8         1.5878912334e-01
  9        -5.7058350589e-13
 10         1.1358100485e-14
 11         1.7451409191e-16
 12        -1.9094828752e-02
 13        -2.5636246360e-14
 14        -9.3557815576e-17
 15         3.8692200770e-12
 16        -5.9364107703e-15
 17         1.9454401793e+00
 18        -1.5605950262e-13
 19         7.3559911477e-15
 20         5.7184811560e-16
 21         3.6528439961e-02
 22        -5.9127186197e-14
 23         5.6675576173e-16
 24         3.7100388042e-02
 25         1.3843580251e+00
 26        -2.4741957853e-16
 27         2.5602902456e-02
 28         2.2679996010e-02
 29        -7.7198053014e-01
 30         6.3207924869e-15
 31        -2.2851544829e+00
 32        -1.0769494227e+00
 33        -3.7100388042e-02
 34        -1.3843580251e+00
 35         2.2015404748e-16
 36         2.5602902456e-02
 37        -2.2679996010e-02
 38         7.7198053014e-01
 39         5.3506394515e-15
 40        -2.2851544829e+00
 41         1.0769494226e+00
 Sym= A
 Ene=         6.7940012646e-01
 Spin= Alpha
 Occup=         0.0000000000e+00
  1         1.0422010509e-01
  2        -3.0092755570e-02
  3        -2.8265709990e+00
  4        -1.9502214677e-15
  5         1.0823938995e-11
  6         1.8961035664e-01
  7        -6.2673001934e-15
  8         7.9843491009e-11
  9         6.2066792462e-01
 10        -8.1636429097e-03
 11        -2.1588415329e-16
 12        -1.2292093221e-12
 13         9.1182023788e-03
 14        -8.2330307993e-17
 15        -6.0153415710e+00
 16        -2.2257195541e-14
 17         1.1332955353e-10
 18         7.4974260688e-01
 19        -6.3430937192e-03
 20        -2.7940059061e-15
 21        -6.3868116782e-12
 22        -4.2304168311e-02
 23        -1.4287539505e-15
 24         1.4936073271e-01
 25         3.5463694172e+00
 26         6.0693367855e-17
 27         6.7814084617e-04
 28         3.5124721363e-03
 29         5.7442307161e-01
 30         1.2631463910e-14
 31        -1.3482615599e+00
 32         1.1567153388e+00
 33         1.4936073272e-01
 34         3.5463694179e+00
 35         2.6514151008e-15
 36        -6.7814084305e-04
 37         3.5124721411e-03
 38         5.7442307174e-01
 39         1.8808380098e-14
 40         1.3482615602e+00
 41         1.1567153389e+00
 Sym= A
 Ene=         6.8890957988e-01
 Spin= Alpha
 Occup=         0.0000000000e+00
  1        -4.1906335737e-12
  2         1.8606295531e-12
  3         1.1902329655e-10
  4         5.2141758296e-15
  5         2.5863264637e-01
  6        -8.6014258100e-12
  7         7.9281348047e-15
  8         1.8193867140e+00
  9        -2.6426457860e-11
 10         3.4579500174e-13
 11         3.3302000609e-16
 12        -2.6495743198e-02
 13        -3.1104264517e-13
 14        -1.3520202681e-17
 15         2.6149340314e-10
 16         2.2122652144e-14
 17         2.5652050697e+00
 18        -3.3384759207e-11
 19         2.3309415579e-13
 20         7.5673890365e-15
 21        -1.3698068414e-01
 22         2.4564270497e-12
 23        -3.2827450364e-16
 24        -1.0335731497e-01
 25        -8.6681384285e+00
 26        -8.5183533269e-16
 27         3.1468221406e-02
 28        -5.0181317610e-02
 29        -1.4471497159e+00
 30        -1.1698247566e-14
 31         3.2672621089e+00
 32        -1.6806712966e+00
 33         1.0335731496e-01
 34         8.6681384282e+00
 35         1.7119877406e-15
 36         3.1468221407e-02
 37         5.0181317610e-02
 38         1.4471497159e+00
 39        -2.9757905862e-14
 40         3.2672621088e+00
 41         1.6806712965e+00
 Sym= A
 Ene=         8.5034011055e-01
 Spin= Alpha
 Occup=         0.0000000000e+00
  1        -3.9713297513e-14
  2        -2.2005577976e-13
  3        -5.6812242591e-13
  4        -1.6761218377e-15
  5         2.6922803998e-01
  6         2.8297457158e-13
  7         1.3006149315e-15
  8        -2.9728738942e-01
  9         8.9222713155e-14
 10        -4.5377117992e-15
 11        -1.7747516963e-16
 12         5.4801880907e-02
 13        -2.9213402456e-14
 14        -5.7750291212e-17
 15        -1.7434700813e-12
 16        -3.1151732268e-15
 17        -1.0753539825e+00
 18         7.7154692792e-14
 19         6.0354660689e-14
 20        -3.2745328031e-15
 21         7.1803867891e-01
 22        -4.8696107406e-13
 23        -1.1996639120e-15
 24        -4.1888749794e-01
 25         2.5338259330e+00
 26        -5.5881785461e-17
 27        -1.2687439050e-01
 28         1.5150493718e-01
 29         1.3423858610e-01
 30        -4.8063723590e-17
 31        -3.6794815042e-01
 32        -1.3203258908e-01
 33         4.1888749794e-01
 34        -2.5338259330e+00
 35        -5.8346442895e-16
 36        -1.2687439050e-01
 37        -1.5150493718e-01
 38        -1.3423858610e-01
 39         3.8738918823e-15
 40        -3.6794815041e-01
 41         1.3203258908e-01
 Sym= A
 Ene=         9.6910748352e-01
 Spin= Alpha
 Occup=         0.0000000000e+00
  1         8.4001733557e-02
  2         1.9532578888e-01
  3        -1.0049716958e+00
  4        -6.6662411388e-17
  5        -2.7705967934e-13
  6        -7.8014755783e-02
  7        -2.5257008375e-17
  8        -9.3991734594e-13
  9         2.6232366711e-01
 10         1.2114397875e-03
 11         7.0426335241e-16
 12         2.2290147692e-14
 13         3.6041534900e-02
 14        -2.7002175494e-16
 15        -4.6087599628e+00
 16        -2.6557527363e-15
 17        -2.6616185888e-12
 18         1.2215584550e+00
 19        -1.3766593512e-01
 20        -1.4174429617e-14
 21         6.0704355187e-13
 22         7.5705963074e-01
 23        -3.9688711712e-15
 24        -4.7853315699e-01
 25         3.1648198014e+00
 26         3.9451584072e-16
 27        -1.7671383314e-01
 28         8.8540213665e-02
 29         1.9315318220e-01
 30         6.3598709235e-17
 31        -1.4882331287e-01
 32         2.6765340892e-01
 33        -4.7853315699e-01
 34         3.1648198014e+00
 35         2.7885981682e-15
 36         1.7671383314e-01
 37         8.8540213664e-02
 38         1.9315318220e-01
 39        -1.9850915566e-16
 40         1.4882331286e-01
 41         2.6765340892e-01
 Sym= A
 Ene=         1.1288340211e+00
 Spin= Alpha
 Occup=         0.0000000000e+00
  1         2.6632581578e-16
  2         3.7984322304e-16
  3        -5.0949511509e-15
  4         2.1024153696e-01
  5         5.1962562673e-15
  6        -9.7800825758e-15
  7         1.2875924761e-02
  8         4.0931506408e-15
  9         7.7577126791e-15
 10        -6.9241593061e-16
 11         2.2868419630e-02
 12         3.7367948263e-18
 13         9.0682886216e-16
 14        -1.2744765289e-15
 15         6.7971484137e-14
 16         7.2424868176e-01
 17         3.8091829791e-14
 18        -3.3515381094e-14
 19         2.6555795684e-14
 20        -1.1210160902e+00
 21        -4.3363182388e-15
 22        -1.5372937824e-14
 23         4.3826970312e-14
 24         3.1647356042e-15
 25        -1.1398291054e-13
 26         1.4208447612e-02
 27        -5.0287975297e-15
 28         2.1676336445e-15
 29        -3.5049309368e-14
 30        -5.7320295373e-01
 31         3.3034407391e-14
 32        -6.0331895486e-15